# vtk DataFile Version 3.0
Gravity inversion using rectangular prisms
ASCII
DATASET UNSTRUCTURED_GRID

POINTS	3159	double
0	0	0
0	0	500
0	0	1000
0	0	1500
0	0	2000
0	0	2500
0	0	3000
0	0	3500
0	500	0
0	500	500
0	500	1000
0	500	1500
0	500	2000
0	500	2500
0	500	3000
0	500	3500
0	1000	0
0	1000	500
0	1000	1000
0	1000	1500
0	1000	2000
0	1000	2500
0	1000	3000
0	1000	3500
0	1500	0
0	1500	500
0	1500	1000
0	1500	1500
0	1500	2000
0	1500	2500
0	1500	3000
0	1500	3500
0	2000	0
0	2000	500
0	2000	1000
0	2000	1500
0	2000	2000
0	2000	2500
0	2000	3000
0	2000	3500
0	2500	0
0	2500	500
0	2500	1000
0	2500	1500
0	2500	2000
0	2500	2500
0	2500	3000
0	2500	3500
0	3000	0
0	3000	500
0	3000	1000
0	3000	1500
0	3000	2000
0	3000	2500
0	3000	3000
0	3000	3500
0	3500	0
0	3500	500
0	3500	1000
0	3500	1500
0	3500	2000
0	3500	2500
0	3500	3000
0	3500	3500
0	4000	0
0	4000	500
0	4000	1000
0	4000	1500
0	4000	2000
0	4000	2500
0	4000	3000
0	4000	3500
0	4500	0
0	4500	500
0	4500	1000
0	4500	1500
0	4500	2000
0	4500	2500
0	4500	3000
0	4500	3500
0	5000	0
0	5000	500
0	5000	1000
0	5000	1500
0	5000	2000
0	5000	2500
0	5000	3000
0	5000	3500
0	5500	0
0	5500	500
0	5500	1000
0	5500	1500
0	5500	2000
0	5500	2500
0	5500	3000
0	5500	3500
0	6000	0
0	6000	500
0	6000	1000
0	6000	1500
0	6000	2000
0	6000	2500
0	6000	3000
0	6000	3500
500	0	0
500	0	500
500	0	1000
500	0	1500
500	0	2000
500	0	2500
500	0	3000
500	0	3500
500	500	0
500	500	500
500	500	1000
500	500	1500
500	500	2000
500	500	2500
500	500	3000
500	500	3500
500	1000	0
500	1000	500
500	1000	1000
500	1000	1500
500	1000	2000
500	1000	2500
500	1000	3000
500	1000	3500
500	1500	0
500	1500	500
500	1500	1000
500	1500	1500
500	1500	2000
500	1500	2500
500	1500	3000
500	1500	3500
500	2000	0
500	2000	500
500	2000	1000
500	2000	1500
500	2000	2000
500	2000	2500
500	2000	3000
500	2000	3500
500	2500	0
500	2500	500
500	2500	1000
500	2500	1500
500	2500	2000
500	2500	2500
500	2500	3000
500	2500	3500
500	3000	0
500	3000	500
500	3000	1000
500	3000	1500
500	3000	2000
500	3000	2500
500	3000	3000
500	3000	3500
500	3500	0
500	3500	500
500	3500	1000
500	3500	1500
500	3500	2000
500	3500	2500
500	3500	3000
500	3500	3500
500	4000	0
500	4000	500
500	4000	1000
500	4000	1500
500	4000	2000
500	4000	2500
500	4000	3000
500	4000	3500
500	4500	0
500	4500	500
500	4500	1000
500	4500	1500
500	4500	2000
500	4500	2500
500	4500	3000
500	4500	3500
500	5000	0
500	5000	500
500	5000	1000
500	5000	1500
500	5000	2000
500	5000	2500
500	5000	3000
500	5000	3500
500	5500	0
500	5500	500
500	5500	1000
500	5500	1500
500	5500	2000
500	5500	2500
500	5500	3000
500	5500	3500
500	6000	0
500	6000	500
500	6000	1000
500	6000	1500
500	6000	2000
500	6000	2500
500	6000	3000
500	6000	3500
1000	0	0
1000	0	500
1000	0	1000
1000	0	1500
1000	0	2000
1000	0	2500
1000	0	3000
1000	0	3500
1000	500	0
1000	500	500
1000	500	1000
1000	500	1500
1000	500	2000
1000	500	2500
1000	500	3000
1000	500	3500
1000	1000	0
1000	1000	500
1000	1000	1000
1000	1000	1500
1000	1000	2000
1000	1000	2500
1000	1000	3000
1000	1000	3500
1000	1500	0
1000	1500	500
1000	1500	1000
1000	1500	1500
1000	1500	2000
1000	1500	2500
1000	1500	3000
1000	1500	3500
1000	2000	0
1000	2000	500
1000	2000	1000
1000	2000	1500
1000	2000	1750
1000	2000	2000
1000	2000	2500
1000	2000	3000
1000	2000	3500
1000	2250	1500
1000	2250	1750
1000	2250	2000
1000	2500	0
1000	2500	500
1000	2500	1000
1000	2500	1250
1000	2500	1500
1000	2500	1750
1000	2500	2000
1000	2500	2250
1000	2500	2500
1000	2500	3000
1000	2500	3500
1000	2750	1000
1000	2750	1250
1000	2750	1500
1000	2750	1750
1000	2750	2000
1000	2750	2250
1000	2750	2500
1000	3000	0
1000	3000	500
1000	3000	1000
1000	3000	1250
1000	3000	1500
1000	3000	1750
1000	3000	2000
1000	3000	2250
1000	3000	2500
1000	3000	3000
1000	3000	3500
1000	3250	1000
1000	3250	1250
1000	3250	1500
1000	3250	1750
1000	3250	2000
1000	3250	2250
1000	3250	2500
1000	3500	0
1000	3500	500
1000	3500	1000
1000	3500	1250
1000	3500	1500
1000	3500	1750
1000	3500	2000
1000	3500	2250
1000	3500	2500
1000	3500	3000
1000	3500	3500
1000	3750	1000
1000	3750	1250
1000	3750	1500
1000	3750	1750
1000	3750	2000
1000	3750	2250
1000	3750	2500
1000	4000	0
1000	4000	500
1000	4000	1000
1000	4000	1250
1000	4000	1500
1000	4000	1750
1000	4000	2000
1000	4000	2250
1000	4000	2500
1000	4000	3000
1000	4000	3500
1000	4500	0
1000	4500	500
1000	4500	1000
1000	4500	1500
1000	4500	2000
1000	4500	2500
1000	4500	3000
1000	4500	3500
1000	5000	0
1000	5000	500
1000	5000	1000
1000	5000	1500
1000	5000	2000
1000	5000	2500
1000	5000	3000
1000	5000	3500
1000	5500	0
1000	5500	500
1000	5500	1000
1000	5500	1500
1000	5500	2000
1000	5500	2500
1000	5500	3000
1000	5500	3500
1000	6000	0
1000	6000	500
1000	6000	1000
1000	6000	1500
1000	6000	2000
1000	6000	2500
1000	6000	3000
1000	6000	3500
1250	2000	1500
1250	2000	1750
1250	2000	2000
1250	2250	1500
1250	2250	1750
1250	2250	2000
1250	2500	1000
1250	2500	1250
1250	2500	1500
1250	2500	1750
1250	2500	2000
1250	2500	2250
1250	2500	2500
1250	2750	1000
1250	2750	1250
1250	2750	1500
1250	2750	1750
1250	2750	2000
1250	2750	2250
1250	2750	2500
1250	3000	1000
1250	3000	1250
1250	3000	1500
1250	3000	1750
1250	3000	2000
1250	3000	2250
1250	3000	2500
1250	3250	1000
1250	3250	1250
1250	3250	1500
1250	3250	1750
1250	3250	2000
1250	3250	2250
1250	3250	2500
1250	3500	1000
1250	3500	1250
1250	3500	1500
1250	3500	1750
1250	3500	2000
1250	3500	2250
1250	3500	2500
1250	3750	1000
1250	3750	1250
1250	3750	1500
1250	3750	1750
1250	3750	2000
1250	3750	2250
1250	3750	2500
1250	4000	1000
1250	4000	1250
1250	4000	1500
1250	4000	1750
1250	4000	2000
1250	4000	2250
1250	4000	2500
1500	0	0
1500	0	500
1500	0	1000
1500	0	1500
1500	0	2000
1500	0	2500
1500	0	3000
1500	0	3500
1500	500	0
1500	500	500
1500	500	1000
1500	500	1500
1500	500	2000
1500	500	2500
1500	500	3000
1500	500	3500
1500	1000	0
1500	1000	500
1500	1000	1000
1500	1000	1500
1500	1000	2000
1500	1000	2500
1500	1000	3000
1500	1000	3500
1500	1500	0
1500	1500	500
1500	1500	1000
1500	1500	1500
1500	1500	1750
1500	1500	2000
1500	1500	2500
1500	1500	3000
1500	1500	3500
1500	1750	1500
1500	1750	1750
1500	1750	2000
1500	2000	0
1500	2000	500
1500	2000	1000
1500	2000	1250
1500	2000	1500
1500	2000	1750
1500	2000	2000
1500	2000	2250
1500	2000	2500
1500	2000	3000
1500	2000	3500
1500	2250	1000
1500	2250	1250
1500	2250	1500
1500	2250	1750
1500	2250	2000
1500	2250	2250
1500	2250	2500
1500	2500	0
1500	2500	500
1500	2500	750
1500	2500	1000
1500	2500	1250
1500	2500	1500
1500	2500	1750
1500	2500	2000
1500	2500	2250
1500	2500	2500
1500	2500	2750
1500	2500	3000
1500	2500	3500
1500	2750	500
1500	2750	750
1500	2750	1000
1500	2750	1250
1500	2750	1500
1500	2750	1750
1500	2750	2000
1500	2750	2250
1500	2750	2500
1500	2750	2750
1500	2750	3000
1500	3000	0
1500	3000	500
1500	3000	750
1500	3000	1000
1500	3000	1250
1500	3000	1500
1500	3000	1750
1500	3000	2000
1500	3000	2250
1500	3000	2500
1500	3000	2750
1500	3000	3000
1500	3000	3500
1500	3250	500
1500	3250	750
1500	3250	1000
1500	3250	1250
1500	3250	1500
1500	3250	1750
1500	3250	2000
1500	3250	2250
1500	3250	2500
1500	3250	2750
1500	3250	3000
1500	3500	0
1500	3500	500
1500	3500	750
1500	3500	1000
1500	3500	1250
1500	3500	1500
1500	3500	1750
1500	3500	2000
1500	3500	2250
1500	3500	2500
1500	3500	2750
1500	3500	3000
1500	3500	3500
1500	3750	500
1500	3750	750
1500	3750	1000
1500	3750	1250
1500	3750	1500
1500	3750	1750
1500	3750	2000
1500	3750	2250
1500	3750	2500
1500	3750	2750
1500	3750	3000
1500	4000	0
1500	4000	500
1500	4000	750
1500	4000	1000
1500	4000	1250
1500	4000	1500
1500	4000	1750
1500	4000	2000
1500	4000	2250
1500	4000	2500
1500	4000	2750
1500	4000	3000
1500	4000	3500
1500	4250	1000
1500	4250	1250
1500	4250	1500
1500	4250	1750
1500	4250	2000
1500	4250	2250
1500	4250	2500
1500	4500	0
1500	4500	500
1500	4500	1000
1500	4500	1250
1500	4500	1500
1500	4500	1750
1500	4500	2000
1500	4500	2250
1500	4500	2500
1500	4500	3000
1500	4500	3500
1500	5000	0
1500	5000	500
1500	5000	1000
1500	5000	1500
1500	5000	2000
1500	5000	2500
1500	5000	3000
1500	5000	3500
1500	5500	0
1500	5500	500
1500	5500	1000
1500	5500	1500
1500	5500	2000
1500	5500	2500
1500	5500	3000
1500	5500	3500
1500	6000	0
1500	6000	500
1500	6000	1000
1500	6000	1500
1500	6000	2000
1500	6000	2500
1500	6000	3000
1500	6000	3500
1750	1500	1500
1750	1500	1750
1750	1500	2000
1750	1750	1500
1750	1750	1750
1750	1750	2000
1750	2000	1000
1750	2000	1250
1750	2000	1500
1750	2000	1750
1750	2000	2000
1750	2000	2250
1750	2000	2500
1750	2250	1000
1750	2250	1250
1750	2250	1500
1750	2250	1750
1750	2250	2000
1750	2250	2250
1750	2250	2500
1750	2500	500
1750	2500	750
1750	2500	1000
1750	2500	1250
1750	2500	1500
1750	2500	1750
1750	2500	2000
1750	2500	2250
1750	2500	2500
1750	2500	2750
1750	2500	3000
1750	2750	500
1750	2750	750
1750	2750	1000
1750	2750	1250
1750	2750	1500
1750	2750	1750
1750	2750	2000
1750	2750	2250
1750	2750	2500
1750	2750	2750
1750	2750	3000
1750	3000	500
1750	3000	750
1750	3000	1000
1750	3000	1250
1750	3000	1500
1750	3000	1750
1750	3000	2000
1750	3000	2250
1750	3000	2500
1750	3000	2750
1750	3000	3000
1750	3250	500
1750	3250	750
1750	3250	1000
1750	3250	1250
1750	3250	1500
1750	3250	1750
1750	3250	2000
1750	3250	2250
1750	3250	2500
1750	3250	2750
1750	3250	3000
1750	3500	500
1750	3500	750
1750	3500	1000
1750	3500	1250
1750	3500	1500
1750	3500	1750
1750	3500	2000
1750	3500	2250
1750	3500	2500
1750	3500	2750
1750	3500	3000
1750	3750	500
1750	3750	750
1750	3750	1000
1750	3750	1250
1750	3750	1500
1750	3750	1750
1750	3750	2000
1750	3750	2250
1750	3750	2500
1750	3750	2750
1750	3750	3000
1750	4000	500
1750	4000	750
1750	4000	1000
1750	4000	1250
1750	4000	1500
1750	4000	1750
1750	4000	2000
1750	4000	2250
1750	4000	2500
1750	4000	2750
1750	4000	3000
1750	4250	1000
1750	4250	1250
1750	4250	1500
1750	4250	1750
1750	4250	2000
1750	4250	2250
1750	4250	2500
1750	4500	1000
1750	4500	1250
1750	4500	1500
1750	4500	1750
1750	4500	2000
1750	4500	2250
1750	4500	2500
2000	0	0
2000	0	500
2000	0	1000
2000	0	1500
2000	0	2000
2000	0	2500
2000	0	3000
2000	0	3500
2000	500	0
2000	500	500
2000	500	1000
2000	500	1500
2000	500	2000
2000	500	2500
2000	500	3000
2000	500	3500
2000	1000	0
[...]
CELL_DATA	2415
SCALARS model double 1
LOOKUP_TABLE table0
-0.542617
2.88665
0.725954
-6.1225
-10.4184
-13.0276
-15.2536
-0.694475
5.06954
-0.632102
-8.49846
-11.7709
-13.284
-14.6164
-0.865897
0.675947
-4.09237
-11.5469
-13.1428
-13.023
-12.9595
-1.07847
7.3637
-4.36727
-13.7616
-13.969
-12.2201
-10.6521
-0.387384
2.36921
-8.08068
-16.691
-14.7914
-11.4392
-8.50098
-0.357575
4.14798
-13.2027
-20.7315
-16.2415
-11.4189
-7.42335
-1.2189
5.5028
-17.7104
-24.7387
-18.4274
-12.6011
-8.03997
-2.46242
15.9034
-17.6889
-26.7986
-20.6214
-14.7774
-10.3737
-2.08822
13.6855
-15.5575
-26.1003
-22.0623
-17.271
-13.82
-0.726735
6.79223
-9.01193
-21.7325
-21.5136
-19.0776
-17.3677
0.0337436
3.38532
-0.7632
-15.1489
-19.1391
-19.5636
-19.8998
-0.528918
8.07147
3.60627
-11.8787
-17.3547
-18.8865
-20.0504
0.00885466
1.2706
0.765073
-6.52366
-10.441
-12.4516
-14.0421
-0.82877
5.73172
-1.21599
-8.6805
-11.1504
-12.0119
-12.704
-1.00025
6.12362
-3.18811
-10.649
-11.1588
-10.4043
-9.74599
-1.75242
8.32355
-5.67455
-12.0841
-10.1287
-7.74792
-5.7185
-0.55106
-0.758401
-11.0443
-13.717
-8.52522
-4.81195
-1.73017
-0.857996
-4.03708
-16.4338
-15.5714
-7.18453
-2.79329
0.842607
-1.0048
-1.72318
-18.5759
-17.7154
-7.77047
-3.03032
0.869114
-2.36517
8.4386
-16.6103
-19.5974
-10.4177
-5.8352
-1.98069
-2.23153
5.24372
-15.1367
-21.8113
-15.4309
-10.618
-6.96338
-1.30684
6.8497
-10.1342
-20.7843
-18.3638
-15.0504
-12.5053
-0.754098
4.24458
-4.67567
-17.1451
-18.7439
-17.6831
-16.8446
-0.14908
1.88281
-2.53383
-14.9165
-17.7473
-17.6312
-17.5579
0.464275
0.778997
0.193246
-7.80624
-10.5609
-11.2478
-11.6493
0.509248
-3.70109
-4.69416
-9.35241
-9.82242
-9.39445
-8.99202
-0.172181
-2.31393
-6.49923
-9.16754
-6.84358
-5.03517
-3.56367
-0.305925
-4.48336
-9.11875
-6.90905
-1.13877
1.60854
3.80304
-1.55689
-7.42677
-10.4638
-11.3607
-5.33641
-9.44658
-2.94654
-3.33086
3.5228
-0.0275946
7.38473
7.03247
9.44654
11.437
-1.15088
-10.7707
-18.4965
-8.47737
-19.5497
-8.93671
-12.4659
-1.00329
-12.8001
-0.548709
-8.72676
-1.89599
-7.94103
-0.729591
3.03417
10.9767
5.36006
13.715
4.69971
4.96299
7.20393
7.89059
18.6327
19.0124
21.9465
22.7222
16.433
17.0305
-2.1055
-16.9268
-20.967
-9.77141
-21.8998
-10.9745
-13.9896
-0.856394
-15.6812
-2.40205
-8.17109
-0.856584
-8.84286
-1.77901
6.29301
14.8239
5.62261
13.9906
7.75511
8.738
7.25918
8.47561
23.5148
24.5671
23.1177
24.3867
18.5004
18.4114
-3.36602
-16.0012
-21.5205
-12.039
-21.0486
-14.6241
-17.3468
-5.2219
-18.7097
-9.5215
-9.8934
-3.61473
-11.3225
-6.67691
3.32878
11.0174
-0.435082
5.67948
5.67065
7.01594
3.32006
4.60552
20.6712
22.0936
16.1603
17.5705
14.4549
14.5794
-1.86851
-9.97008
-19.7605
-12.3041
0.103405
3.69237
6.54445
-1.14064
-1.26224
-16.2924
-19.1669
-11.1762
-6.62295
-2.94827
-0.412935
6.93464
-9.3656
-20.0865
-17.3588
-13.6435
-10.8066
-0.677217
3.83392
-7.97833
-19.0641
-17.8175
-14.8193
-12.602
1.31078
-4.66888
-6.96967
-11.4276
-11.0085
-9.62134
-8.53779
0.191174
1.62497
-5.95264
-9.62403
-7.69945
-5.76241
-4.17955
0.0236682
0.726341
-5.47722
-4.87858
0.120644
2.5127
4.47297
-0.0999315
-6.25617
-3.78418
-5.32996
-0.332485
0.712578
6.73851
1.79876
7.21729
9.77283
16.1374
13.9129
15.1254
16.308
-1.20446
-5.01026
-9.10012
0.84425
-4.2748
7.0563
2.53398
13.4866
10.1259
22.6474
6.67966
13.8468
13.2422
21.078
19.5413
26.6687
30.5003
37.8649
18.9552
16.15
27.8632
25.9245
33.0609
30.4454
43.7787
41.4533
30.9344
28.9419
-1.33516
-14.5172
0.743941
-16.3744
0.935215
-6.57348
13.0009
-7.82678
15.7528
-0.9471
11.945
1.30788
15.6823
18.3623
32.573
25.657
41.4489
19.5885
27.8011
24.7589
33.1305
41.5392
48.6453
51.1265
57.6259
34.8552
34.1699
40.2305
39.8741
53.8156
51.4885
61.9439
59.1793
37.0542
26.1627
42.0241
31.4248
52.5491
41.2932
58.3426
47.2173
38.7428
-4.52506
-19.9695
-1.20088
-24.2936
-4.78616
-9.42584
17.2688
-12.1244
15.7323
1.79699
17.4266
0.109491
16.3508
30.4775
47.3092
30.9303
48.1837
27.6594
36.0087
27.4726
35.65
57.3959
63.1724
58.6489
63.8963
43.1881
42.905
43.1352
42.9649
66.8486
63.6175
67.4992
64.1308
43.976
33.7127
43.6486
34.2193
61.4232
50.4909
61.3484
51.1145
42.2137
-6.23339
-26.4634
-8.40821
-28.0594
-15.9906
-16.7369
9.34293
-22.7887
-2.79305
-3.76517
12.1365
-9.37937
5.30287
25.4894
42.7925
14.3823
31.4864
23.8704
31.6913
17.168
24.2745
53.9363
59.0895
43.6252
49.0631
39.8595
39.9144
33.5489
33.765
63.4622
60.4613
55.0622
52.845
40.7569
32.8776
35.9038
30.5595
57.8578
49.0683
50.8758
44.5518
37.1941
-4.86545
-29.5465
-15.8578
-2.02256
-20.9895
-11.0255
0.402419
16.7791
-11.4604
1.61479
8.33697
14.2067
-0.491169
3.87226
29.7777
35.4257
15.4341
20.4793
24.877
24.5446
15.8646
15.843
43.5849
42.2295
30.7982
30.4345
26.036
25.0116
-0.407885
-23.0649
-22.1802
-10.662
2.91383
5.72858
9.96222
-0.495213
-2.59274
-17.78
-22.453
-14.1961
-7.75511
-2.79594
-0.17278
3.46403
-14.2711
-22.8798
-16.9235
-10.7052
-6.0996
0.508748
1.45352
-11.2131
-14.402
-10.9917
-7.72231
-5.40205
0.280829
4.18558
-6.4155
-8.93724
-4.96325
-1.87425
0.562273
0.0476504
-0.833169
-3.67486
1.70047
8.29088
10.4444
12.3275
-0.0303859
0.48527
-3.40223
3.34275
5.17499
13.8671
1.84903
10.0732
13.1541
22.9443
8.07974
13.4431
19.8943
26.1923
15.186
20.6476
29.9094
35.9573
19.5112
15.6933
32.6993
29.4535
27.1289
23.6253
41.7363
38.524
29.6838
28.5945
1.31741
-3.59556
10.0382
4.8655
22.007
7.22113
23.6149
19.1913
40.3885
15.7752
26.8232
29.6576
42.4091
29.7097
40.9941
51.2719
63.4826
34.1632
40.6689
50.5056
56.3844
48.6313
54.1364
70.6298
74.3582
46.1844
43.1877
60.3987
56.7856
58.2753
54.4913
75.9603
70.5843
45.4321
32.3233
57.2425
44.4062
55.5746
42.3891
68.4007
55.1583
46.2442
2.74068
10.037
33.8176
15.4653
45.8189
33.9429
62.2007
52.8771
87.7758
45.4947
59.5022
61.405
75.8741
76.8283
88.8497
104.261
114.276
67.5191
71.9624
83.0281
85.4677
94.1441
94.8831
116.353
113.22
74.0297
69.2269
85.4322
79.1588
93.2148
85.5191
107.987
97.7123
66.996
54.5224
74.4647
61.7477
79.947
66.1157
89.0468
74.3828
60.9341
8.38444
22.4615
57.0226
27.735
62.9853
76.6689
114.104
98.8299
133.239
74.5813
88.3704
80.7072
93.266
129.309
135.308
144.669
146.106
94.1837
94.5392
98.0685
96.9977
133.353
126.241
140.83
130.892
92.7601
85.2233
94.4674
86.3774
117.907
105.451
120.891
107.35
78.7309
65.8796
79.072
66.6583
94.478
79.2595
95.3036
80.2651
66.8356
7.59725
24.6479
57.829
10.3454
39.1882
105.433
134.081
84.624
108.8
75.3791
87.5162
57.4372
70.8161
142.102
141.311
117.464
119.329
92.6958
91.5634
78.2052
78.5203
135.493
125.192
116.985
109.276
89.791
82.1772
79.0878
72.9427
115.795
102.76
102.957
92.036
75.1768
63.9413
67.2109
57.7211
91.1346
77.2184
82.2674
70.3843
60.6166
-6.83429
-10.1407
12.8297
-32.6669
-18.9861
37.8648
61.1427
-9.75203
9.76494
31.1192
46.7607
5.00683
21.5372
75.9802
84.7646
32.092
47.2856
57.4453
60.0009
34.773
38.9741
88.9347
85.829
57.7487
59.0958
63.9934
59.8738
46.6346
44.4401
84.378
76.6328
62.9764
58.5282
55.8382
47.3348
43.1356
37.4128
69.7412
60.4042
54.9391
48.9965
43.9833
-2.67466
-46.6795
-14.3226
1.14418
-24.0581
-13.7552
-0.414265
16.3382
-16.2327
-4.19831
13.7456
17.7234
-2.71917
-0.0363579
29.8086
33.4582
8.70812
11.9835
28.7348
27.213
13.1425
12.4122
41.8697
39.8367
23.4048
22.8282
17.944
23.0054
-0.0958859
-8.5953
-23.1784
-22.9421
-10.6597
-1.65195
5.06778
-0.383436
-2.53011
-20.9984
-25.7248
-15.6562
-6.49683
0.146602
1.13843
0.210123
-13.2431
-14.6096
-9.72459
-5.80261
-3.04056
0.489131
3.29866
-7.63781
-7.77124
-2.36688
1.13459
3.84935
3.46605
-9.16141
-8.43705
-2.6933
-4.06375
3.43965
-7.61549
-2.28487
-3.42235
4.01425
-2.0266
1.54842
7.49896
12.312
-0.525687
3.22965
9.14402
14.1561
14.3277
15.9407
17.5067
2.72916
-10.9287
1.49243
1.84148
14.6356
-11.0706
1.33795
1.72677
15.0373
4.56031
13.7166
19.4781
29.9959
5.90951
15.4892
22.6327
33.6251
20.1954
25.9768
37.7125
43.5563
22.8574
28.8065
41.9163
47.6853
31.8993
28.3704
48.6373
45.214
34.8941
31.4681
52.5317
49.0615
39.5586
36.6043
6.05652
15.5745
32.4826
33.7084
57.2428
19.7156
36.8528
43.0425
66.7211
41.3529
52.6801
70.0731
81.2779
47.5734
58.9911
80.5913
91.1862
60.2384
64.7727
87.0824
88.7242
66.6072
70.6236
96.2629
96.714
67.6409
63.0514
88.1452
81.1656
72.8458
67.8794
94.9284
87.1013
62.284
48.6655
76.7696
62.8776
66.2701
52.6109
81.4476
67.3591
57.6662
-2.31128
33.6914
1.98057
52.188
3.1346
44.6738
5.63713
64.0678
58.3414
89.4548
91.4551
128.466
73.4531
105.247
113.943
152.015
104.873
114.135
143.51
147.988
120.965
128.51
166.409
167.486
116.278
113.427
144.491
135.941
128.806
123.847
160.632
148.842
108.392
98.1519
126
112.218
116.888
105.241
136.153
120.382
89.8306
74.8441
100.257
83.9636
95.3275
79.8644
106.512
89.4506
75.5836
6.78198
76.6337
15.6903
111.555
13.8858
97.0925
25.0105
142.314
133.774
170.303
175.972
205.088
166.91
203.709
222.089
251.162
180.511
177.282
206.01
194.265
210.958
201.978
243.517
223.136
166.937
152.501
178.054
159.283
186.462
167.567
199.993
175.742
138.171
121.375
142.359
123.96
149.679
130.376
154.645
133.398
106.651
89.4358
107.916
90.6685
113.478
95.2564
115.025
96.6316
83.2211
20.1509
130.8
24.3419
129.029
34.4834
176.459
42.4374
181.652
198.376
216.614
178.834
187.045
257.752
274.774
246.243
243.39
208.275
191.432
179.048
165.531
250.415
222.224
219.32
194.403
173.312
153.642
151.742
135.511
195.948
170.312
172.834
151.036
137.071
119.138
122.598
107.279
149.341
128.499
134.008
116.042
103.58
87.459
93.9983
80.2135
110.627
93.3537
100.644
85.8626
76.3057
19.5508
107.395
121.016
26.5453
46.6547
165.583
165.641
62.369
75.334
124.077
121.791
62.7682
72.8956
156.797
145.483
84.4876
89.5868
117.502
107.976
78.823
76.3666
135.086
121.195
91.9234
86.7095
101.217
90.0311
76.5023
69.7959
111.062
97.7711
84.4284
76.2997
80.372
69.8351
64.331
57.798
86.2997
75.0685
69.1536
62.2125
56.7028
-8.5555
-43.626
15.9427
31.9006
-7.86181
4.69482
28.1469
42.1884
-1.58025
10.4539
44.1334
46.2401
18.075
21.017
52.9807
53.7547
23.5913
26.0464
52.291
49.2045
31.1956
30.3047
58.2901
54.4394
35.4028
34.1872
27.4312
31.5809
-1.59683
-10.4012
-23.8777
-21.0001
-7.01814
2.54538
10.0032
-0.691423
-1.22272
-23.7651
-26.7871
-14.5021
-3.88773
3.9199
1.7839
-11.4887
-11.2422
-11.0179
-7.27725
-4.41632
-2.1969
1.33453
-2.17072
-7.52891
-6.04348
-0.787266
2.18092
4.57002
2.92818
-7.34292
-6.99503
-2.58716
-3.28307
3.56508
-6.5698
-3.37881
-3.8111
1.8521
0.0835748
3.67364
9.33921
14.2275
0.178229
3.1548
8.07115
12.3274
15.2864
16.7243
18.1213
3.69051
-11.0201
0.725397
0.177083
12.8698
-12.0226
-2.61335
-2.47183
7.58199
5.42057
14.9525
21.8021
33.0036
3.20415
12.2862
17.5142
28.4554
22.8112
28.7832
41.7499
47.6289
20.1279
25.9432
37.3801
43.4782
35.0942
32.0685
52.6903
49.5935
32.5364
30.2339
49.1676
46.8776
40.3783
37.2032
6.30598
17.6868
34.5449
40.9169
64.4267
11.1633
26.5595
28.8514
51.6782
46.5795
58.314
79.4715
90.4797
39.1501
51.0529
67.5884
79.6077
66.3913
70.5647
96.0472
96.6857
59.8117
64.7062
86.6806
88.7556
72.987
68.3375
95.0844
87.518
68.1141
64.4647
88.6625
82.4403
66.4025
53.4331
81.6511
68.2068
62.746
51.3613
77.3843
65.5595
58.3735
4.30494
42.3156
6.26638
59.8568
3.16404
28.7405
6.13274
44.4175
71.077
102.867
110.772
149.351
53.0587
83.8494
85.2444
122.671
119.749
127.812
165.142
166.865
102.202
112.53
140.888
146.665
128.637
123.884
160.57
148.986
116.027
113.654
144.562
136.478
117.089
105.651
136.43
120.819
109.043
99.3983
126.869
113.537
95.5908
80.6845
106.845
90.2517
90.604
77.3615
101.239
86.3988
76.4165
13.3588
92.2291
24.4065
135.074
9.97257
66.2876
17.9346
96.5789
162.605
200.741
218.135
248.651
125.765
164.338
168.691
200.543
209.797
201.555
242.843
223.084
178.351
176.555
205.182
194.534
186.583
167.857
200.368
176.206
167.525
153.453
179.328
160.711
150.054
130.863
155.124
133.946
139.318
122.835
143.799
125.591
113.884
96.0597
115.496
97.4468
107.856
91.8736
109.312
93.1401
84.1615
35.3365
173.406
43.422
182.053
28.1333
132.559
32.7289
137.24
256.366
274.045
247.583
244.654
197.498
216.329
185.482
191.384
250.67
222.674
220.524
195.285
209.798
192.981
182.828
168.119
196.603
170.942
173.7
151.784
175.317
155.52
154.278
137.699
149.91
129.102
134.63
116.684
138.757
120.926
124.428
109.18
111.146
94.1834
101.193
86.7078
105.116
89.9752
95.626
82.8005
77.2368
17.1981
168.026
167.823
64.6139
77.3783
116.16
127.179
33.1818
51.9048
158.412
146.502
85.8759
90.4288
128.648
124.635
66.5386
75.2001
136.007
121.973
92.7424
87.4344
120.152
110.245
81.1976
78.5131
111.686
98.4263
85.008
76.9408
103.054
91.9815
78.2253
71.7362
86.8533
75.9066
69.6718
62.965
82.0397
72.4724
65.8855
60.1627
57.4317
-6.32554
-42.7243
28.9998
42.6684
-1.38603
10.446
18.3153
33.2846
-6.89337
5.12686
53.5903
54.3492
23.9015
26.3864
46.0066
48.1076
19.2991
22.36
58.7792
55.0235
35.7267
34.6063
53.8081
51.0527
32.3529
31.7906
27.8389
31.9112
-1.43768
-14.2516
-25.9852
-22.0431
-7.598
2.19638
9.92182
-0.0286742
-5.02647
-26.3038
-28.4564
-15.5948
-4.5307
3.66877
0.612326
-0.353183
-0.82015
-5.19778
-5.08317
-4.3739
-3.31323
0.438835
-2.05742
-4.48604
-4.65195
-1.05476
0.687562
2.38581
1.49265
-5.15437
-4.44242
2.53271
11.0244
12.4228
13.9388
1.44909
-6.52191
0.0791214
8.60404
11.4364
21.3277
-2.6593
3.6053
5.51212
13.01
15.2652
20.8621
29.8385
36.1074
8.94275
14.1391
20.6398
26.8112
28.4198
27.09
42.7883
41.56
22.8279
22.4985
34.4202
34.2765
32.0768
30.2274
0.894515
5.33134
16.418
15.9529
34.5701
1.66487
6.65056
6.71592
18.4261
28.0163
39.303
49.2507
61.7818
15.9311
25.6798
29.2814
41.257
48.512
54.3211
70.5872
74.7081
34.8467
41.3207
51.2719
57.2492
59.1854
56.9431
76.947
72.7669
47.5409
46.6323
61.9278
59.888
56.3196
47.3736
69.3961
60.0397
47.7315
42.008
58.6023
52.4749
48.2352
1.93131
30.3087
56.5732
50.4018
82.9194
10.8343
29.6908
19.4213
43.2411
74.6604
87.3187
102.524
113.28
44.8927
58.5787
61.5651
75.6838
94.3588
95.5453
117.078
114.36
68.6083
73.2326
84.7505
87.3355
94.4127
87.6278
109.521
99.9176
75.8293
72.1806
87.6556
82.2112
81.1527
70.4112
90.6223
78.4904
68.4016
60.5165
76.5224
67.5706
63.3035
3.41606
31.3087
6.1286
38.115
-0.134491
6.46347
-1.71065
5.83914
73.9742
109.979
96.2999
130.837
27.721
56.0196
32.0266
63.2969
128.512
135.245
145.586
147.363
76.0378
89.3134
83.7498
95.5323
134.838
127.995
143.246
133.318
96.783
97.1324
101.631
100.333
119.859
107.866
123.267
110.018
95.4962
88.5333
97.6982
89.9905
96.4429
83.3864
97.5813
84.4427
81.4125
71.8556
82.1812
72.6951
69.5222
1.85541
108.832
136.146
97.0787
115.975
31.2462
60.8472
23.1875
45.4766
145.695
144.093
123.464
123.236
80.3891
91.0615
64.051
75.1566
138.827
128.225
120.943
112.718
97.1092
95.5304
83.1514
82.9142
118.517
105.659
105.877
95.114
93.4023
86.0642
82.916
77.0622
93.6204
81.4497
84.9064
74.7962
78.495
69.9182
70.6425
63.8733
63.271
-10.2513
51.9657
69.6832
-1.08524
16.3168
5.24559
19.3249
-21.3838
-11.7946
82.443
88.759
37.1747
50.4205
37.7416
50.9547
10.2932
24.746
92.9806
89.3887
61.4333
62.5449
62.444
64.5517
39.394
43.4255
87.3087
79.8215
65.7714
61.7858
67.8455
64.1837
50.2998
48.8716
72.5916
65.2727
57.8896
53.6909
59.9379
55.4836
48.457
46.2994
46.0857
-4.01336
-47.0011
2.99119
18.2678
-14.2312
-3.12655
-9.67296
2.80844
-19.4911
-11.3938
33.0272
36.7617
11.3359
14.8552
18.4918
22.6405
3.00834
6.09881
44.52
43.2265
25.7951
25.9338
32.5987
32.6136
18.1457
18.8671
19.106
24.0182
-0.141761
-11.1138
-26.1308
-25.2048
-12.0865
-2.55841
4.97233
-0.114163
0.24762
-25.0494
-29.9339
-18.5986
-8.1728
-0.405682
0.60228
-1.98422
2.77372
-2.72962
-5.30106
-6.21187
-6.23673
0.407733
-1.65148
-2.93523
-4.93581
-3.9116
-3.09591
-2.0506
0.766105
-2.97984
-5.12576
-2.57824
2.14777
4.43195
6.50826
1.04548
-5.00549
-3.84696
3.93579
8.52848
11.7169
17.324
-1.02645
2.28076
4.04326
8.42498
14.3813
16.4714
18.4847
-0.609125
-6.20942
4.39853
12.5508
11.2817
21.8749
-4.96365
0.595887
-1.76688
6.19313
21.2237
27.8051
32.2033
39.2507
9.14369
15.1638
15.7281
22.7574
34.4926
34.0901
45.908
45.5032
22.5182
22.7864
31.1171
31.8152
31.2197
31.5688
-1.92815
-5.37031
8.18133
-2.63148
12.2479
-16.9219
-8.65357
-15.6319
-7.53876
18.7835
31.9632
26.8172
41.643
-0.414547
10.9102
2.45079
15.5405
43.5849
50.5194
53.8537
60.1752
22.5078
30.119
28.4005
36.2034
56.1843
55.1973
64.7964
62.9724
37.5879
38.3599
43.5647
44.2026
53.4145
47.5165
60.7745
54.7824
39.0883
35.6438
45.2625
42.0305
42.172
-5.24309
-1.83121
15.9456
-5.20969
15.5052
-15.6184
-6.65802
-18.5588
-8.73664
33.0649
48.6909
34.8191
50.7201
4.4321
18.4868
3.83996
18.3752
60.9974
66.479
63.0878
67.9056
32.1162
39.8342
32.5565
40.0663
70.2836
67.7184
71.4463
68.559
47.2281
47.6837
47.6824
48.0882
64.864
58.7006
65.3223
59.3826
48.5829
45.409
48.866
45.9382
46.1913
-8.85063
-10.914
9.45903
-17.3946
-2.62918
-23.511
-14.2716
-28.8464
-22.343
30.3779
46.1826
19.8867
35.2689
0.248934
14.6447
-5.2863
7.9466
59.0063
63.6514
49.089
54.0372
29.2709
36.4759
22.8271
29.4303
67.7617
65.1598
59.579
57.821
44.645
45.2142
38.5015
39.3612
61.9099
56.8101
54.4089
50.9739
46.0666
43.7437
40.9378
39.7898
41.1058
-6.12681
-34.1936
5.86202
20.3735
-7.09174
4.53744
-10.4978
0.498354
-15.4091
-7.96478
35.424
40.6954
20.2102
25.034
15.3956
20.7988
6.64879
10.7484
48.2392
47.5626
34.7585
35.0972
30.9621
31.9294
22.1013
23.3349
25.1044
27.9939
-1.10424
-23.7114
-22.8831
-13.2454
0.431321
5.72177
11.6594
-0.588158
3.60213
-20.1618
-26.5648
-17.4192
-9.05503
-2.54474
-0.429605
7.0864
-19.9174
-28.9937
-21.294
-12.792
-6.45394
1.19879
-4.28124
-0.560308
-5.31328
-8.12425
-9.42682
-10.096
1.16168
-4.87396
-5.32749
-7.7948
-8.0229
-7.75107
-7.29505
0.474217
1.62675
-6.24958
-8.38804
-5.91288
-3.69922
-1.62054
-0.171063
-4.73871
-9.97704
-7.23736
-1.33521
2.44928
6.14897
0.855185
-13.2001
-14.187
-1.02485
4.06658
3.03619
8.97547
-8.17444
-4.93134
-5.47216
-1.57052
5.63198
9.21709
14.3782
-0.452932
-20.4649
-12.78
-3.61586
-11.3703
-1.50939
-17.4197
-12.0345
-16.3408
-10.7787
6.90282
13.5833
10.0442
17.1825
-3.41492
1.036
-1.82112
3.02314
20.6187
21.9295
25.6096
27.2698
7.78264
8.94559
11.8442
13.452
13.4413
20.7105
-2.43676
-19.5777
-10.8185
-0.551847
-11.7128
-1.35165
-16.1681
-10.569
-16.8252
-11.3012
11.7388
19.0524
11.429
18.6477
-1.15973
3.85701
-1.60314
3.33841
28.2235
30.0267
28.323
30.2038
13.7346
15.5725
13.7532
15.6872
15.3673
22.7346
-2.29373
-20.7141
-13.8007
-4.03684
-15.973
-8.29994
-17.7373
-12.8042
-18.2932
-15.0541
8.9063
15.6178
4.22953
9.60516
-3.21662
1.24006
-5.73388
-2.4437
25.786
27.7035
20.4282
22.2252
11.9571
13.8521
8.72023
10.3918
12.1706
19.0358
-1.79174
-11.608
-18.3925
-13.2178
-1.18922
4.17315
10.3892
-1.73661
3.20672
-15.7517
-20.4765
-12.4062
-6.00375
-0.364055
-0.614795
4.14412
-13.8182
-24.0663
-20.1616
-14.321
-9.74583
-0.453416
5.98058
-13.7881
-24.6216
-21.6384
-16.2164
-12.1618
1.09106
0.211426
-4.4606
-9.56253
-11.6767
-12.6742
-13.6035
1.68083
-4.68535
-5.90351
-10.0937
-11.4364
-11.6143
-11.7061
0.648888
-0.82483
-6.69327
-11.4891
-11.1569
-9.60221
-8.08215
0.00255589
3.29142
-8.56207
-13.769
-10.7614
-6.93533
-3.35385
0.456929
-3.32794
-14.3507
-16.9952
-10.2647
-4.25522
1.42435
0.591026
-1.88768
-16.4474
-18.445
-10.3525
-2.49489
4.89593
0.363971
-6.03517
-16.919
-18.792
-10.0049
-2.06284
5.74476
-0.259246
-4.15333
-15.5325
-19.0054
-11.1649
-3.89278
3.24157
-1.63416
0.714081
-12.5504
-19.6815
-14.1389
-7.8961
-2.15594
-1.03709
7.70467
-9.62897
-20.2295
-17.6761
-12.8806
-8.82149
-0.527718
1.4161
-8.81336
-19.6244
-19.869
-16.8856
-14.574
0.0400596
6.83379
-5.61091
-17.7811
-19.4339
-17.3752
-15.8171
0.642692
1.63257
-5.09472
-10.8488
-12.8943
-13.7302
-14.6514
0.551296
3.82589
-2.73428
-9.78963
-12.1123
-12.5831
-12.8768
0.501607
-0.24939
-5.76687
-11.538
-12.0785
-10.9162
-9.70116
-0.247658
7.70691
-7.34154
-14.6027
-12.5611
-9.00053
-5.71173
0.124076
2.05954
-13.2613
-18.4368
-13.1779
-7.18091
-1.78291
0.688035
-1.93126
-15.9224
-20.351
-13.6377
-5.92575
1.01337
0.495379
-3.7178
-14.6292
-20.1005
-13.4813
-5.64811
1.64262
-0.0397402
1.21604
-11.6749
-19.3202
-14.0058
-7.03015
-0.473115
-0.256884
1.01297
-10.2323
-19.3506
-15.7964
-10.0908
-4.97511
-0.603267
7.75701
-8.97157
-19.6879
-18.0727
-13.8892
-10.5269
-0.539239
6.5914
-7.78571
-18.2041
-18.9911
-16.7695
-15.2452
-0.305003
7.55792
-2.55501
-14.8187
-17.7197
-16.7531