# vtk DataFile Version 3.0
Gravity inversion using rectangular prisms
ASCII
DATASET UNSTRUCTURED_GRID

POINTS	4921	double
250	250	250
250	250	750
250	250	1250
250	250	1750
250	250	2250
250	250	2750
250	250	3250
250	750	250
250	750	750
250	750	1250
250	750	1750
250	750	2250
250	750	2750
250	750	3250
250	1250	250
250	1250	750
250	1250	1250
250	1250	1750
250	1250	2250
250	1250	2750
250	1250	3250
250	1750	250
250	1750	750
250	1750	1250
250	1750	1750
250	1750	2250
250	1750	2750
250	1750	3250
250	2250	250
250	2250	750
250	2250	1250
250	2250	1750
250	2250	2250
250	2250	2750
250	2250	3250
250	2750	250
250	2750	750
250	2750	1250
250	2750	1750
250	2750	2250
250	2750	2750
250	2750	3250
250	3250	250
250	3250	750
250	3250	1250
250	3250	1750
250	3250	2250
250	3250	2750
250	3250	3250
250	3750	250
250	3750	750
250	3750	1250
250	3750	1750
250	3750	2250
250	3750	2750
250	3750	3250
250	4250	250
250	4250	750
250	4250	1250
250	4250	1750
250	4250	2250
250	4250	2750
250	4250	3250
250	4750	250
250	4750	750
250	4750	1250
250	4750	1750
250	4750	2250
250	4750	2750
250	4750	3250
250	5250	250
250	5250	750
250	5250	1250
250	5250	1750
250	5250	2250
250	5250	2750
250	5250	3250
250	5750	250
250	5750	750
250	5750	1250
250	5750	1750
250	5750	2250
250	5750	2750
250	5750	3250
750	250	250
750	250	750
750	250	1250
750	250	1750
750	250	2250
750	250	2750
750	250	3250
750	750	250
750	750	750
750	750	1250
750	750	1750
750	750	2250
750	750	2750
750	750	3250
750	1250	250
750	1250	750
750	1250	1250
750	1250	1750
750	1250	2250
750	1250	2750
750	1250	3250
750	1750	250
750	1750	750
750	1750	1250
750	1750	1750
750	1750	2250
750	1750	2750
750	1750	3250
750	2250	250
750	2250	750
750	2250	1250
750	2250	1750
750	2250	2250
750	2250	2750
750	2250	3250
750	2750	250
750	2750	750
750	2750	1250
750	2750	1750
750	2750	2250
750	2750	2750
750	2750	3250
750	3250	250
750	3250	750
750	3250	1250
750	3250	1750
750	3250	2250
750	3250	2750
750	3250	3250
750	3750	250
750	3750	750
750	3750	1250
750	3750	1750
750	3750	2250
750	3750	2750
750	3750	3250
750	4250	250
750	4250	750
750	4250	1250
750	4250	1750
750	4250	2250
750	4250	2750
750	4250	3250
750	4750	250
750	4750	750
750	4750	1250
750	4750	1750
750	4750	2250
750	4750	2750
750	4750	3250
750	5250	250
750	5250	750
750	5250	1250
750	5250	1750
750	5250	2250
750	5250	2750
750	5250	3250
750	5750	250
750	5750	750
750	5750	1250
750	5750	1750
750	5750	2250
750	5750	2750
750	5750	3250
1250	250	250
1250	250	750
1250	250	1250
1250	250	1750
1250	250	2250
1250	250	2750
1250	250	3250
1250	750	250
1250	750	750
1250	750	1250
1250	750	1750
1250	750	2250
1250	750	2750
1250	750	3250
1250	1250	250
1250	1250	750
1250	1250	1250
1250	1250	1750
1250	1250	2250
1250	1250	2750
1250	1250	3250
1250	1750	250
1250	1750	750
1250	1750	1250
1250	1750	1750
1250	1750	2250
1250	1750	2750
1250	1750	3250
1250	2250	250
1250	2250	750
1250	2250	1250
1250	2250	1750
1250	2250	2250
1250	2250	2750
1250	2250	3250
1250	2750	250
1125	2625	625
1125	2625	875
1125	2875	625
1125	2875	875
1375	2625	625
1375	2625	875
1375	2875	625
1375	2875	875
1250	2750	1250
1125	2625	1625
1125	2625	1875
1125	2875	1625
1125	2875	1875
1375	2625	1625
1375	2625	1875
1375	2875	1625
1375	2875	1875
1125	2625	2125
1125	2625	2375
1125	2875	2125
1125	2875	2375
1375	2625	2125
1375	2625	2375
1375	2875	2125
1375	2875	2375
1250	2750	2750
1250	2750	3250
1250	3250	250
1125	3125	625
1125	3125	875
1125	3375	625
1125	3375	875
1375	3125	625
1375	3125	875
1375	3375	625
1375	3375	875
1250	3250	1250
1125	3125	1625
1125	3125	1875
1125	3375	1625
1125	3375	1875
1375	3125	1625
1375	3125	1875
1375	3375	1625
1375	3375	1875
1125	3125	2125
1125	3125	2375
1125	3375	2125
1125	3375	2375
1375	3125	2125
1375	3125	2375
1375	3375	2125
1375	3375	2375
1250	3250	2750
1250	3250	3250
1250	3750	250
1250	3750	750
1250	3750	1250
1125	3625	1625
1125	3625	1875
1125	3875	1625
1125	3875	1875
1375	3625	1625
1375	3625	1875
1375	3875	1625
1375	3875	1875
1250	3750	2250
1250	3750	2750
1250	3750	3250
1250	4250	250
1250	4250	750
1250	4250	1250
1250	4250	1750
1250	4250	2250
1250	4250	2750
1250	4250	3250
1250	4750	250
1250	4750	750
1250	4750	1250
1250	4750	1750
1250	4750	2250
1250	4750	2750
1250	4750	3250
1250	5250	250
1250	5250	750
1250	5250	1250
1250	5250	1750
1250	5250	2250
1250	5250	2750
1250	5250	3250
1250	5750	250
1250	5750	750
1250	5750	1250
1250	5750	1750
1250	5750	2250
1250	5750	2750
1250	5750	3250
1750	250	250
1750	250	750
1750	250	1250
1750	250	1750
1750	250	2250
1750	250	2750
1750	250	3250
1750	750	250
1750	750	750
1750	750	1250
1750	750	1750
1750	750	2250
1750	750	2750
1750	750	3250
1750	1250	250
1750	1250	750
1750	1250	1250
1750	1250	1750
1750	1250	2250
1750	1250	2750
1750	1250	3250
1750	1750	250
1750	1750	750
1750	1750	1250
1750	1750	1750
1750	1750	2250
1750	1750	2750
1750	1750	3250
1750	2250	250
1625	2125	625
1625	2125	875
1625	2375	625
1625	2375	875
1875	2125	625
1875	2125	875
1875	2375	625
1875	2375	875
1625	2125	1125
1625	2125	1375
1625	2375	1125
1625	2375	1375
1875	2125	1125
1875	2125	1375
1875	2375	1125
1875	2375	1375
1625	2125	1625
1625	2125	1875
1625	2375	1625
1625	2375	1875
1875	2125	1625
1875	2125	1875
1875	2375	1625
1875	2375	1875
1625	2125	2125
1625	2125	2375
1625	2375	2125
1625	2375	2375
1875	2125	2125
1875	2125	2375
1875	2375	2125
1875	2375	2375
1750	2250	2750
1750	2250	3250
1625	2625	125
1625	2625	375
1625	2875	125
1625	2875	375
1875	2625	125
1875	2625	375
1875	2875	125
1875	2875	375
1625	2625	625
1625	2625	875
1625	2875	625
1625	2875	875
1875	2625	625
1875	2625	875
1875	2875	625
1875	2875	875
1625	2625	1125
1625	2625	1375
1625	2875	1125
1625	2875	1375
1875	2625	1125
1875	2625	1375
1875	2875	1125
1875	2875	1375
1625	2625	1625
1625	2625	1875
1625	2875	1625
1625	2875	1875
1875	2625	1625
1875	2625	1875
1875	2875	1625
1875	2875	1875
1625	2625	2125
1625	2625	2375
1625	2875	2125
1625	2875	2375
1875	2625	2125
1875	2625	2375
1875	2875	2125
1875	2875	2375
1625	2625	2625
1625	2625	2875
1625	2875	2625
1625	2875	2875
1875	2625	2625
1875	2625	2875
1875	2875	2625
1875	2875	2875
1750	2750	3250
1625	3125	125
1625	3125	375
1625	3375	125
1625	3375	375
1875	3125	125
1875	3125	375
1875	3375	125
1875	3375	375
1625	3125	625
1625	3125	875
1625	3375	625
1625	3375	875
1875	3125	625
1812.5	3062.5	812.5
1812.5	3062.5	937.5
1812.5	3187.5	812.5
1812.5	3187.5	937.5
1937.5	3062.5	812.5
1937.5	3062.5	937.5
1937.5	3187.5	812.5
1937.5	3187.5	937.5
1875	3375	625
1812.5	3312.5	812.5
1812.5	3312.5	937.5
1812.5	3437.5	812.5
1812.5	3437.5	937.5
1937.5	3312.5	812.5
1937.5	3312.5	937.5
1937.5	3437.5	812.5
1937.5	3437.5	937.5
1625	3125	1125
1625	3125	1375
1625	3375	1125
1625	3375	1375
1812.5	3062.5	1062.5
1812.5	3062.5	1187.5
1812.5	3187.5	1062.5
1812.5	3187.5	1187.5
1937.5	3062.5	1062.5
1937.5	3062.5	1187.5
1937.5	3187.5	1062.5
1937.5	3187.5	1187.5
1875	3125	1375
1812.5	3312.5	1062.5
1812.5	3312.5	1187.5
1812.5	3437.5	1062.5
1812.5	3437.5	1187.5
1937.5	3312.5	1062.5
1937.5	3312.5	1187.5
1937.5	3437.5	1062.5
1937.5	3437.5	1187.5
1812.5	3312.5	1312.5
1812.5	3312.5	1437.5
1812.5	3437.5	1312.5
1812.5	3437.5	1437.5
1937.5	3312.5	1312.5
1937.5	3312.5	1437.5
1937.5	3437.5	1312.5
1937.5	3437.5	1437.5
1625	3125	1625
1625	3125	1875
1625	3375	1625
1625	3375	1875
1875	3125	1625
1875	3125	1875
1875	3375	1625
1875	3375	1875
1625	3125	2125
1625	3125	2375
1625	3375	2125
1625	3375	2375
1875	3125	2125
1875	3125	2375
1875	3375	2125
1875	3375	2375
1625	3125	2625
1625	3125	2875
1625	3375	2625
1625	3375	2875
1875	3125	2625
1875	3125	2875
1875	3375	2625
1875	3375	2875
1750	3250	3250
1625	3625	125
1625	3625	375
1625	3875	125
1625	3875	375
1875	3625	125
1875	3625	375
1875	3875	125
1875	3875	375
1625	3625	625
1625	3625	875
1625	3875	625
1625	3875	875
1875	3625	625
1812.5	3562.5	812.5
1812.5	3562.5	937.5
1812.5	3687.5	812.5
1812.5	3687.5	937.5
1937.5	3562.5	812.5
1937.5	3562.5	937.5
1937.5	3687.5	812.5
1937.5	3687.5	937.5
1875	3875	625
1875	3875	875
1625	3625	1125
1625	3625	1375
1625	3875	1125
1625	3875	1375
1812.5	3562.5	1062.5
1812.5	3562.5	1187.5
1812.5	3687.5	1062.5
1812.5	3687.5	1187.5
1937.5	3562.5	1062.5
1937.5	3562.5	1187.5
1937.5	3687.5	1062.5
1937.5	3687.5	1187.5
1875	3625	1375
1875	3875	1125
1875	3875	1375
1625	3625	1625
1625	3625	1875
1625	3875	1625
1625	3875	1875
1875	3625	1625
1875	3625	1875
1875	3875	1625
1875	3875	1875
1625	3625	2125
1625	3625	2375
1625	3875	2125
1625	3875	2375
1875	3625	2125
1875	3625	2375
1875	3875	2125
1875	3875	2375
1625	3625	2625
1625	3625	2875
1625	3875	2625
1625	3875	2875
1875	3625	2625
1875	3625	2875
1875	3875	2625
1875	3875	2875
1750	3750	3250
1750	4250	250
1625	4125	625
1625	4125	875
1625	4375	625
1625	4375	875
1875	4125	625
1875	4125	875
1875	4375	625
1875	4375	875
1625	4125	1125
1625	4125	1375
1625	4375	1125
1625	4375	1375
1875	4125	1125
1875	4125	1375
1875	4375	1125
1875	4375	1375
1625	4125	1625
1625	4125	1875
1625	4375	1625
1625	4375	1875
1875	4125	1625
1875	4125	1875
1875	4375	1625
1875	4375	1875
1625	4125	2125
1625	4125	2375
1625	4375	2125
1625	4375	2375
1875	4125	2125
1875	4125	2375
1875	4375	2125
1875	4375	2375
1750	4250	2750
1750	4250	3250
1750	4750	250
1750	4750	750
1750	4750	1250
1750	4750	1750
1750	4750	2250
1750	4750	2750
1750	4750	3250
1750	5250	250
1750	5250	750
1750	5250	1250
1750	5250	1750
1750	5250	2250
1750	5250	2750
1750	5250	3250
1750	5750	250
1750	5750	750
1750	5750	1250
1750	5750	1750
1750	5750	2250
1750	5750	2750
1750	5750	3250
2250	250	250
2250	250	750
2250	250	1250
2250	250	1750
2250	250	2250
2250	250	2750
2250	250	3250
2250	750	250
2250	750	750
2250	750	1250
2250	750	1750
2250	750	2250
2250	750	2750
2250	750	3250
2250	1250	250
2250	1250	750
2250	1250	1250
2250	1250	1750
2250	1250	2250
2250	1250	2750
2250	1250	3250
2250	1750	250
2125	1625	625
2125	1625	875
2125	1875	625
2125	1875	875
2375	1625	625
2375	1625	875
2375	1875	625
2375	1875	875
2125	1625	1125
2125	1625	1375
2125	1875	1125
2125	1875	1375
2375	1625	1125
2375	1625	1375
2375	1875	1125
2375	1875	1375
2125	1625	1625
2125	1625	1875
2125	1875	1625
2125	1875	1875
2375	1625	1625
2375	1625	1875
2375	1875	1625
2375	1875	1875
2125	1625	2125
2125	1625	2375
2125	1875	2125
[...]
CELL_DATA	4921
SCALARS model double 1
LOOKUP_TABLE table0
0.0796603
-1.48349
-0.464897
-2.49422
-5.00567
-5.25502
-5.33501
-0.148926
3.3052
3.7279
-0.0319407
-3.79654
-4.64262
-4.93239
0.652227
-6.09936
-1.65132
-2.62261
-4.87505
-4.86716
-4.8987
0.457632
-2.4533
-2.5357
-5.53331
-7.11383
-5.82526
-5.27908
-1.00476
6.43947
0.183672
-7.82802
-9.55807
-7.09498
-5.89311
-0.384654
-0.135448
-8.26866
-13.1998
-12.2756
-8.34698
-6.55348
0.114441
-3.08088
-11.2751
-15.5368
-13.6547
-9.0927
-7.06393
-0.0450283
2.08209
-4.71202
-12.659
-13.0148
-9.10858
-7.29837
-0.344685
2.84637
-1.15799
-9.03729
-11.2101
-8.54375
-7.22948
-0.440518
0.136527
-0.419863
-6.08826
-9.06433
-7.62725
-6.89135
-0.645067
4.14373
2.01887
-3.54112
-7.01883
-6.54103
-6.32977
-0.146178
-0.570965
1.10863
-2.8896
-6.12181
-5.80827
-5.78776
0.295989
-1.65411
-0.520443
-3.04739
-5.59278
-5.4879
-5.40729
-0.0702543
-1.65987
0.168919
-2.46287
-5.11411
-5.06314
-4.98657
0.15143
2.94914
-1.00758
-4.43867
-5.98309
-5.03159
-4.61855
0.334161
-5.66524
-6.18472
-7.16404
-7.0459
-5.11227
-4.24941
-1.15604
1.61983
-2.25547
-6.91037
-6.9183
-4.92162
-3.79763
-1.31249
4.00673
-4.17837
-8.23786
-6.46434
-4.74031
-3.51674
-0.704842
-2.20565
-8.24644
-10.4965
-7.56548
-5.26169
-3.84837
-1.09422
1.85117
-5.77394
-10.8525
-9.8762
-6.41258
-4.78784
-0.808836
2.79407
-3.67679
-10.2881
-10.5867
-7.33743
-5.77833
-0.364685
1.15901
-1.55415
-7.76636
-9.68088
-7.37074
-6.26016
-0.337976
3.65165
1.74643
-4.22593
-7.43263
-6.51547
-6.08786
-0.185942
0.716085
1.37963
-2.93027
-6.1324
-5.68046
-5.57751
-0.0764555
0.438506
-0.249443
-4.3763
-6.6648
-5.8143
-5.40028
-0.636281
2.7358
0.928388
-3.77733
-6.14213
-5.2427
-4.73481
-0.0545645
-1.51523
-3.41474
-5.47344
-5.78486
-4.25549
-3.49422
-0.789629
-7.03707
-7.40088
-5.53748
-3.16822
-1.94615
-1.27173
-1.09446
-1.74628
-3.77039
-0.632128
3.17832
2.09627
2.03796
-1.6336
-4.48452
-4.44587
-9.8762
-8.66435
-5.75158
-6.2748
-9.25141
-9.04509
-4.78691
-2.64854
0.694669
-2.18351
1.4032
4.15706
7.61108
5.79887
9.36712
3.50351
4.64796
4.2941
5.43001
9.90398
10.1427
11.3714
11.325
5.85999
4.98837
-1.16034
-9.83816
-10.1365
-4.72623
-8.27247
-9.37158
-9.74853
-7.22628
-9.31621
-6.65142
-3.1122
0.928918
-4.52533
-0.457422
5.75507
9.79033
3.74468
7.80908
4.16831
5.46214
3.58041
5.07374
11.8458
11.7216
10.6709
10.9056
6.23721
5.3184
-1.66185
-9.97149
-10.7675
-6.67239
-3.63186
-8.04121
-5.28999
-0.649741
2.33199
-4.19029
-1.18442
1.30566
2.52838
2.3991
-0.565273
-8.50359
-13.5374
-11.5158
-5.93674
-3.0676
-1.76275
-0.337582
-1.23327
-8.4572
-12.3129
-10.1905
-6.23635
-4.60961
0.305499
-1.78226
-3.39821
-7.73977
-8.82928
-6.54057
-5.60605
0.204716
0.710512
0.0119793
-4.58064
-6.95726
-5.72007
-5.29988
-0.122572
-1.58237
-4.30268
-7.26181
-7.97933
-6.05571
-5.24145
-0.878833
3.33672
-0.171509
-4.99524
-6.46404
-4.91831
-4.07588
-1.05685
-5.31816
-4.13955
-3.79509
-2.69724
-1.85468
-1.2358
-0.699184
-2.35498
-1.37441
3.61111
7.64512
5.25741
4.6605
-0.623575
-0.857434
-1.37415
-1.19159
0.0785246
1.5041
2.98463
3.49622
7.62601
-1.34273
2.08128
2.76004
7.94748
6.20332
11.4976
13.8972
21.2489
5.87448
9.53985
12.7076
16.3159
16.2705
19.7429
26.8977
29.8545
13.0253
14.4151
18.7164
18.9231
21.7677
21.4127
30.1837
27.9237
15.5385
13.6004
-1.10873
-1.83627
0.886368
-1.14913
1.59831
3.28973
2.16905
5.15876
-2.06996
0.259528
-2.60921
1.40974
6.94764
14.3897
12.1446
23.2076
5.34879
12.176
9.42677
17.3678
23.9965
32.8998
35.3004
44.7177
18.3041
21.8898
23.1225
26.1418
38.4383
40.2845
48.7171
48.6181
23.4932
22.6215
26.849
25.0468
38.8238
34.2539
45.3292
38.7476
18.2993
16.21
20.1016
17.5837
25.9302
21.7187
28.5051
23.3664
20.2753
-1.81055
-3.58494
-1.4455
-4.29664
2.20256
6.93313
1.54755
5.53679
-3.27604
2.623
-4.52841
1.30316
16.7615
15.9107
21.6255
17.5468
23.4311
32.4806
39.9499
34.8753
42.5504
15.4721
16.834
22.8546
14.4057
20.4049
34.6756
42.4956
31.8802
39.4795
11.6604
18.9944
9.91574
17.8231
27.9087
33.7535
29.5653
35.1395
46.5218
51.3945
48.8729
53.5108
50.6144
28.8248
33.6825
26.2263
30.9835
48.6772
53.3666
45.6649
50.089
38.2459
41.6596
36.1204
39.8149
56.7762
58.3858
53.0678
54.9129
24.9962
27.6797
22.6735
25.3076
54.5182
52.2478
51.6418
49.4753
28.0099
25.9655
26.1418
24.5113
47.916
40.4964
45.4518
38.4925
21.2445
18.7594
20.2119
18.0391
30.0212
24.5914
28.636
23.6812
21.7111
-1.01603
-6.4698
-1.60888
-9.75005
-0.858575
-0.944154
-2.96981
-9.35471
-9.11277
-3.04701
-15.5135
-12.4612
6.01863
10.3966
16.7956
5.93091
11.7272
26.2663
34.1381
19.0519
26.0711
-8.3301
0.552122
4.36228
10.7903
-7.13669
-0.31411
22.5062
27.3098
17.7018
22.7016
40.0772
43.9285
32.423
36.5466
37.5543
11.3054
20.3293
15.858
18.9257
6.34714
10.6629
41.6757
40.3826
24.5508
26.4183
21.1955
20.0246
14.1505
14.7666
37.9739
32.5552
26.8623
24.6914
16.1316
14.161
13.5769
12.571
23.3833
19.1204
19.5127
16.9175
15.8107
-2.91479
-14.6315
-15.7478
-11.1208
-14.6649
-15.157
-13.1773
-15.0244
-17.2964
-13.3685
-8.65036
-15.6563
-12.7908
-6.03236
1.06828
-14.5666
-9.76005
-3.05689
1.27853
-7.61863
-3.42243
7.09583
10.4388
-3.07779
1.36679
5.86268
7.32174
1.89837
3.96222
13.5346
13.5114
6.44643
8.02482
6.35322
6.43387
-0.436023
-3.75193
-16.0917
-15.0251
-8.01058
-3.16865
-1.35704
0.357812
-1.37373
-7.81398
-11.8376
-10.2159
-6.30051
-4.79831
0.265498
1.00544
-1.90375
-7.26688
-8.31099
-5.91396
-5.02486
-0.0195484
-0.76663
-5.17665
-8.38804
-8.39023
-5.92911
-4.8901
-0.611593
3.95159
-0.995767
-5.54817
-5.85183
-4.08115
-3.12324
-1.06814
1.9775
-0.757878
-0.0513072
2.54285
1.81811
1.83382
-0.721595
0.711364
0.197002
1.0293
2.40823
-0.5349
0.409905
1.54199
4.48149
-0.322521
2.3382
5.25249
10.0404
1.88862
5.97429
9.46859
15.9585
5.3023
8.6587
14.6325
18.1557
9.78288
13.3967
21.4801
25.0808
11.8555
13.2053
20.2732
20.022
15.9831
16.5511
26.3477
24.9112
14.2259
12.5194
0.173315
0.800179
0.427294
3.17478
1.31188
2.36731
1.75518
6.41088
3.83206
8.27295
9.30024
18.5986
6.67269
14.2415
16.9534
31.8764
14.6015
21.8756
29.3745
38.9065
23.8227
33.064
46.8125
58.3047
27.5425
30.8603
44.4168
46.1413
39.0888
41.8187
62.5921
62.5014
31.7239
29.7807
44.282
39.1397
41.1182
37.0557
58.0504
49.5221
24.1324
21.2105
30.674
25.9854
29.4435
25.1846
37.4967
30.6158
26.8668
2.65824
8.42223
6.60636
18.446
4.88267
16.6984
9.55419
17.8497
28.792
26.7921
40.9315
25.4778
39.4232
35.8607
53.8947
19.8899
35.1034
19.0341
26.0615
26.6808
34.8738
31.4315
41.3294
41.0962
52.3906
34.1807
41.709
44.0103
52.2762
51.7541
61.2105
63.6827
73.8835
19.525
28.3788
30.6866
41.813
27.4941
38.0703
40.1223
53.2715
37.5768
46.3353
53.0104
63.2563
49.3059
59.6579
66.5233
78.5002
42.6022
55.9626
56.1145
71.03
55.0963
70.9501
72.2735
90.0996
68.6847
79.6927
84.5586
95.7266
85.6501
97.9656
105.576
117.603
49.6106
60.1475
49.5003
55.0548
59.8095
65.1018
69.4549
75.5051
81.5882
87.2778
60.8646
65.1546
69.5878
72.5692
80.3093
82.8687
90.5941
91.7645
54.9414
61.3639
72.1178
78.7135
68.9067
75.9333
87.8516
95.0241
67.8219
72.795
83.9845
87.1838
81.8976
85.9954
99.512
101.576
88.5565
94.7803
104.052
109.351
107.341
113.525
126.28
131.325
98.7878
100.18
111.851
111.806
116.659
117.015
132.919
131.368
63.5784
62.2253
80.4646
75.1961
89.0496
84.3317
98.0616
96.1725
109.53
106.709
114.843
111.673
127.684
122.974
100.872
57.1944
48.8225
67.2224
55.7973
75.3997
62.4389
89.065
72.1788
38.4583
33.2643
42.8602
35.9619
47.7342
39.3286
54.119
43.1809
39.4037
10.0912
29.5441
10.0509
18.6129
27.131
17.5441
25.6259
32.9445
47.3387
32.6127
46.6011
17.6897
34.8924
51.5565
42.966
62.3261
47.1381
68.776
57.7405
82.9174
23.0628
48.6421
69.3335
50.7258
71.2234
66.3017
93.467
70.9255
98.2232
32.4457
40.9825
36.7762
45.8056
50.6133
62.5973
57.8046
70.3838
51.5047
60.2912
56.306
65.0438
74.3682
84.2083
82.1969
91.5954
37.1055
46.7843
34.9836
44.4312
61.1832
74.1337
60.2008
72.7951
57.5988
66.2188
54.9695
63.2929
85.7538
94.5897
83.9108
92.2092
69.4734
85.552
81.036
97.5059
90.0637
109.234
106.098
125.791
99.406
110.129
111.069
120.943
124.874
136.224
140.799
150.825
88.4036
104.72
89.7325
105.262
117.462
136.874
121.561
139.806
117.549
126.29
117.079
124.773
150.627
158.932
152.028
158.731
67.4916
72.4166
71.8877
76.2763
91.5131
96.1563
98.3227
102.088
75.1578
76.0244
78.3776
78.3503
98.325
98.3905
103.09
101.954
72.6411
76.6346
69.4331
73.1317
100.506
103.474
97.4325
99.7681
78.522
78.6159
74.7419
74.7299
103.715
101.907
99.5748
97.6266
117.505
121.456
127.012
129.474
143.389
146.446
156.003
156.9
122.353
120.864
128.86
125.96
145.821
142.381
154.302
149.126
130.996
132.167
128.453
128.781
162.223
161.372
160.585
158.568
130.483
126.546
126.539
122.231
157.308
150.596
153.594
146.197
76.6194
76.1931
78.5706
77.8459
97.2203
94.6827
99.7408
96.7223
80.3507
77.5482
76.3152
73.5686
72.5465
98.9445
95.4188
94.6354
91.3784
77.7533
117.758
114.819
121.71
117.905
137.206
131.822
142.442
135.506
111.018
121.393
116.981
116.851
112.604
142.538
134.348
137.575
129.455
109.892
71.6037
58.6509
68.9328
56.3665
95.9937
76.6453
93.1524
74.0879
44.4438
36.6136
42.67
35.3561
56.7488
44.5207
54.6427
42.9792
41.7592
7.35599
14.2926
20.9919
9.02873
13.6709
29.1553
41.4123
21.8452
31.4558
-2.10777
0.494394
22.0747
48.262
66.6495
39.3253
54.8394
69.6236
94.8243
60.1761
82.0468
9.15711
24.5804
36.9779
11.0663
18.68
43.6091
61.567
26.3348
38.5832
29.2852
38.1744
19.7028
27.9226
53.7642
65.5557
41.8817
53.0674
48.1552
56.2188
37.8551
45.6977
76.0862
84.1659
62.8575
70.5869
8.04033
16.6234
-1.57092
5.22722
25.9902
37.9506
11.477
20.4567
25.0245
32.0287
12.9976
19.0157
46.6425
54.6058
29.5736
36.5187
83.5768
97.8382
69.6375
82.6699
116.192
132.699
100.746
115.394
108.692
115.783
92.784
99.6342
143.512
149.199
125.232
130.675
49.8225
62.0161
28.1389
38.6075
77.1474
90.0416
49.5082
60.9106
71.6167
78.7229
48.0936
55.3714
99.3993
105.355
69.7988
76.6089
62.2845
65.8388
51.9081
55.6832
89.2417
91.539
75.866
78.6564
67.2449
66.836
57.19
57.5018
91.3581
89.4285
79.2085
78.2138
38.5006
42.4962
25.9145
30.2627
59.7345
63.3116
42.9201
46.9942
45.9593
47.492
35.0582
38.1033
64.8992
64.5697
50.1491
51.6146
119.113
119.296
103.311
104.173
150.408
148.08
132.241
130.59
117.034
112.892
102.796
99.6787
143.121
136.066
126.402
120.449
83.1195
85.026
60.9333
64.0833
108.187
108.191
80.7257
82.3813
84.871
83.0852
65.6063
65.6401
105.729
101.351
82.1235
80.384
67.1393
66.4363
59.7788
60.6629
86.9035
83.8794
76.9567
75.6079
66.2439
50.5474
48.1197
107.921
103.698
95.8278
93.1079
127.953
119.796
113.827
107.907
95.349
80.3174
77.6987
65.5268
65.4945
96.5385
91.7766
78.8802
77.2838
70.2764
59.2176
48.9773
44.4152
38.3484
81.0181
64.7773
62.0592
50.9213
37.1249
31.137
30.463
26.9275
47.5913
37.6415
38.3244
31.9146
32.9913
-4.47169
-12.2009
-2.73822
-13.3511
-3.69616
-4.63409
-5.62872
-19.6585
-11.4088
-1.29404
-20.708
-18.5925
6.6777
16.0238
-8.33659
-1.77863
21.6683
33.8902
1.19967
9.24033
24.6908
31.5004
5.81299
11.6499
41.0557
48.8907
18.0951
24.4545
-24.5811
-17.089
10.2712
19.2823
-11.3544
-3.51293
37.8297
41.803
18.9999
23.7424
53.6285
57.1556
30.8256
35.1395
45.2045
46.3701
29.1642
32.4711
58.8913
58.6364
39.2065
41.5388
-4.35664
5.85178
24.5038
26.8608
4.21236
9.35902
43.8095
43.0813
13.3159
17.9276
27.4136
25.1588
13.7848
15.0815
40.4155
34.4127
20.7992
20.4775
19.7409
16.996
14.3238
13.4275
24.8117
20.2804
17.9177
16.1118
16.9597
-1.46628
-13.9808
-19.0816
-5.36229
-13.7768
-22.3052
-24.0854
-14.5193
-20.1227
-19.6775
-17.1326
-19.4298
-19.5091
-20.1882
-15.6654
-21.4789
-19.9068
-10.5204
-6.63176
-14.1041
-10.6722
-7.5659
-3.45447
-13.103
-9.23218
-0.43289
1.27951
-4.31991
-2.22691
2.28725
3.48519
-2.82632
-0.849294
1.13744
2.99656
0.0682489
-5.80125
-13.1988
-15.2458
-11.1861
-5.83808
-3.84364
0.102384
1.80857
-3.73865
-10.2586
-9.93448
-6.30321
-4.8967
0.297395
-1.8184
-4.91155
-7.80698
-7.88831
-5.51027
-4.47113
0.643503
-6.70008
-7.16435
-6.8508
-5.33374
-3.22775
-2.29135
0.00680095
-5.83349
-4.38759
0.910481
5.2673
4.89984
4.28522
0.275079
-2.95471
-1.72949
2.24475
5.77405
-5.46455
-3.0445
2.43038
6.55781
1.52327
7.02434
12.5456
20.5413
1.59374
8.0598
14.3428
23.17
12.0066
16.0379
26.8192
30.5944
13.6339
17.8545
29.851
33.7173
18.8808
18.5978
31.5345
28.9483
20.5967
19.8747
34.3994
31.1628
15.2592
13.7058
21.8676
18.5201
16.0765
14.3277
23.0688
19.3259
17.2554
0.738308
4.18859
5.39539
13.0375
2.63606
7.65704
5.66946
16.2325
10.4739
20.1965
26.3037
27.9977
35.7149
42.5771
52.3932
33.1007
41.5009
48.5446
59.412
13.6278
24.2578
32.0739
36.1295
44.8237
52.7458
63.8116
37.8751
46.8384
54.9858
66.474
32.1698
43.0123
43.5787
50.1925
61.2377
68.6986
49.6981
56.6567
68.3526
76.2486
56.6475
61.9926
74.7891
79.0134
63.0529
68.0862
82.0608
85.8242
37.2673
48.7371
53.3703
60.4527
73.2877
81.244
55.477
62.6485
76.0124
84.0977
67.0127
72.3468
87.2366
91.2568
69.2366
74.4929
89.9918
93.8235
48.5751
50.7833
76.8669
75.8885
54.0003
55.8486
85.3098
83.5339
48.9549
43.4345
69.3725
58.4494
53.3158
46.8295
75.7439
63.3018
34.909
30.6474
45.024
37.2513
37.3796
32.4805
48.5944
39.6845
36.6167
8.01781
27.253
16.4629
32.3597
48.5837
45.3054
66.5158
38.4525
57.2461
53.1452
77.6009
9.89462
20.2117
30.9891
29.882
45.2229
22.0244
33.1252
31.8295
47.6445
18.9222
41.9744
63.1328
57.8202
84.9058
44.1331
66.1355
60.3013
88.5777
34.0738
45.946
49.2817
64.123
39.9797
53.025
56.903
73.2138
59.0249
70.6192
78.9525
91.7872
66.9663
79.4217
89.253
102.847
67.1929
85.2323
88.0778
108.387
77.4751
97.2268
101.637
123.917
101.643
114.976
125.594
138.597
115.003
129.153
142.478
156.212
43.6994
57.7019
62.1348
79.738
45.9796
60.3781
64.9845
83.1465
72.6474
85.7175
96.749
111.012
75.612
89.0043
100.577
115.154
84.8501
105.841
111.198
134.947
88.5824
110.23
115.951
140.502
124.593
139.348
154.556
168.816
129.474
144.538
160.647
175.216
80.4753
88.0446
101.893
108.982
89.7335
97.5293
113.553
120.834
93.8713
98.6138
113.307
115.566
103.083
107.142
124.817
126.082
124.749
130.662
147.259
151.48
139.171
144.777
164.768
168.184
133.019
132.501
151.558
148.745
146.262
144.89
166.529
163.098
96.3734
104.247
121.959
129.081
99.7775
107.685
126.227
133.305
109.716
114.039
132.685
133.86
113.036
117.124
136.743
137.61
149.519
154.827
177.461
180.581
154.816
159.965
183.945
186.735
155.384
153.592
175.866
173.184
159.957
157.815
180.332
177.267
111.148
103.052
128.92
125.6
143.731
138.922
140.495
135.915
156.701
150.598
123.869
123.693
113.883
148.147
143.876
164.589
159.957
152.041
147.438
168.241
163.469
138.089
90.505
73.8288
107.528
85.961
99.1717
80.254
118.512
93.9491
56.2202
45.937
64.1041
50.6856
60.6591
48.7219
69.5427
54.1088
52.1931
10.3429
32.1701
13.1385
41.3234
12.7071
39.5819
15.7973
50.1736
58.6363
85.0906
72.3713
102.909
69.2757
99.2132
85.7171
120.408
15.1097
47.8741
16.8188
53.1603
18.3607
58.2202
20.3826
64.4193
83.7998
117.149
91.1921
124.812
99.7758
137.772
109.16
147.874
13.8184
43.1536
17.5994
55.0795
14.1747
44.5822
18.1556
57.0497
76.0208
108.991
94.7219
132.675
78.9813
113.555
98.5718
138.347
20.5797
64.9813
22.8609
72.0212
21.3205
67.5728
23.793
75.0111
110.758
152.332
121.485
164.089
115.533
159.082
126.855
171.621
110.081
131.896
130.317
152.793
127.171
151.172
151.098
175.802
149.027
160.943
169.024
179.05
169.579
181.917
193.099
203.103
145.549
167.602
152.436
172.994
169.715
193.767
178.99
201.274
182.172
189.896
185.568
191.128
209.134
216.345
214.277
218.853
139.275
164.945
165.892
192.196
145.145
171.761
172.989
200.29
184.271
197.022
210.323
220.47
191.665
204.705
218.983
229.321
186.615
212.466
197.614
221.497
194.959
221.691
206.798
231.482
228.413
235.4
234.849
238.855
238.141
245.172
245.259
249.149
167.721
169.617
183.331
182.57
188.37
189.446
206.669
204.548
166.943
162.002
177.302
170.076
183.547
178.908
194.72
187.438
191.748
188.766
191.033
186.498
216.92
212.088
217.002
210.257
181.917
172.553
178.619
168.35
202.602
191.465
199.992
187.664
203.869
207.372
224.122
223.911
211.664
214.995
232.987
232.476
210.157
235.327
229.782
235.882
227.801
244.931
238.928
245.799
237.108
218.838
209.288
216.092
205.814
224.847
217.005
222.495
213.711
154.892
149.312
160.767
153.161
168.631
162.677
174.593
166.744
137.768
160.893
149.72
155.986
144.051
174.929
163.441
170.6
158.007
135.276
124.962
130.011
120.36
146.209
136.483
141.062
131.928
189.616
158.709
186.609
156.919
116.514
91.852
110.989
88.7246
130.032
100.962
126.253
97.9367
67.6845
52.8986
65.3853
51.2039
73.8087
56.8352
71.4632
55.0562
56.0068
16.9733
53.5926
15.5103
48.5149
20.9438
65.8458
19.581
60.9126
91.1791
122.784
81.8184
109.418
110.395
147.053
100.86
133.067
12.2428
38.4713
8.228
24.792
15.9231
50.8416
11.2985
34.378
63.735
85.9492
41.0836
56.6882
80.7288
106.797
53.9208
72.7945
23.5612
73.8109
21.7527
68.3514
24.6052
76.9721
22.9206
71.4542
123.339
163.99
113.259
149.358
128.926
171.8
118.614
156.822
17.9089
57.1926
12.5528
38.5541
18.8276
59.8353
13.0443
40.1722
91.3016
120.736
61.1519
83.0837
95.8305
127.136
64.295
87.7947
148.11
166.506
131.478
147.553
175.548
195.36
157.887
175.075
177.222
181.318
156.946
160.664
206.119
208.874
184.216
186.42
104.29
118.163
70.9588
82.875
127.472
142.399
89.2955
102.118
126.984
131.397
91.722
97.379
150.847
153.845
110.709
115.32
194.889
215.951
176.192
194.701
204.324
226.128
185.223
204.403
226.864
228.781
203.791
205.05
237.386
239.055
213.754
214.691
143.607
159.527
101.623
115.546
151.317
168.027
107.531
122.215
167.963
170.09
124.164
128.177
176.684
178.523
131.065
134.924
180.225
175.159
159.85
155.508
205.718
198.254
183.517
176.841
167.255
157.261
148.649
140.065
187.917
175.579
167.677
156.618
132.011
129.521
99.9117
99.8833
152.562
148.031
116.46
114.806
124.676
118.118
97.9181
94.2927
141.366
132.667
111.162
105.876
224.253
215.164
200.73
192.411
233.936
224.001
209.717
200.551
203.097
189.78
181.499
168.848
210.481
196.535
188.617
175.054
167.553
161.568
128.392
125.699
175.425
168.735
134.787
131.603
153.412
143.116
121.045
114.568
159.846
148.668
126.345
119.112
145.763
134.032
130.381
120.778
161.477
147.345
144.388
132.488
121.022
112.024
110.434
104.43
130.391
121.614
119.319
113.482
110.99
104.427
90.0777
87.012
123.151
113.865
99.8197
94.631
88.2707
174.533
161.135
155.435
144.379
180.518
165.919
160.761
148.518
131.797
131.909
121.156
107.056
99.5637
136.642
124.84
110.922
102.654
110.243
102.391
92.2399
87.7209
113.656
105.546
95.5236
90.8283
96.8136
77.7517
76.0223
61.4473
109.023
85.642
82.9249
67.2293
57.2919
44.9314
46.041
37.8353
62.5996
48.1911
49.9889
40.2252
44.6366
1.82677
15.9614
26.099
-3.09181
1.03067
24.0283
37.3918
2.1875
8.68725
-7.82422
-23.5228
0.905781
26.6372
43.572
2.90994
11.7438
28.3469
46.4374
3.79393
13.3927
-9.10128
-23.4709
37.2357
48.1823
10.5746
19.685
50.1864
61.2922
18.0302
27.2453
57.0704
63.7243
29.3733
35.374
70.4152
76.5073
36.8912
42.922
-22.1464
-8.57455
57.9123
69.8836
20.058
29.8832
61.7217
74.3295
22.1277
32.2893
79.1052
85.0764
38.9563
46.0652
83.7734
89.7747
41.3952
48.7661
-10.4301
-2.12376
-23.5109
-18.2209
-8.18973
0.542139
-21.7981
-16.2371
5.83692
13.4118
-11.3345
-4.70464
8.52692
16.1938
-9.31108
-2.62612
67.6612
70.0241
38.7795
42.7426
79.9967
81.2789
46.1337
49.7667
70.6198
69.6503
45.7376
47.5355
80.5698
78.6743
52.1776
53.6186
11.0461
18.1571
-2.49297
4.26547
16.4511
23.5783
1.04853
7.94344
23.1057
25.5418
10.1178
13.596
28.1405
30.2278
13.6491
17.0035
88.2498
89.0667
51.4306
55.1982
92.8991
93.5529
54.5
58.2315
87.9907
85.4489
57.2716
58.4297
92.249
89.1197
60.0832
61.0709
21.3298
27.0627
3.90476
9.93305
23.5124
28.9724
5.15532
10.9704
31.3681
33.4836
15.6516
19.263
33.1611
35.1141
16.6531
20.2182
67.7825
65.6847
49.7036
50.8626
76.3795
73.3324
56.5549
57.3576
55.8255
21.5548
25.9356
82.5164
78.6682
61.4694
62.1517
85.726
81.3474
63.9394
64.349
61.5802
26.5702
30.2433
50.8095
42.4373
27.3048
25.7989
56.1835
46.6315
30.7448
28.3454
31.3648
25.8127
22.9231
20.9283
34.1152
27.5069
24.7282
22.2081
24.6497
-2.17322
-25.1548
-25.0736
-17.4296
-22.258
-26.265
-25.5775
-17.3644
-22.2532
-19.1162
-11.8131
-21.4994
-17.8951
-17.9241
-9.56436
-20.8682
-16.8071
-2.4322
3.10119
-10.4035
-5.2322
0.301724
5.91758
-9.14122
-3.77652
6.98443
7.6165
0.197673
2.14718