# vtk DataFile Version 3.0
Gravity inversion using rectangular prisms
ASCII
DATASET UNSTRUCTURED_GRID

POINTS	2415	double
250	250	250
250	250	750
250	250	1250
250	250	1750
250	250	2250
250	250	2750
250	250	3250
250	750	250
250	750	750
250	750	1250
250	750	1750
250	750	2250
250	750	2750
250	750	3250
250	1250	250
250	1250	750
250	1250	1250
250	1250	1750
250	1250	2250
250	1250	2750
250	1250	3250
250	1750	250
250	1750	750
250	1750	1250
250	1750	1750
250	1750	2250
250	1750	2750
250	1750	3250
250	2250	250
250	2250	750
250	2250	1250
250	2250	1750
250	2250	2250
250	2250	2750
250	2250	3250
250	2750	250
250	2750	750
250	2750	1250
250	2750	1750
250	2750	2250
250	2750	2750
250	2750	3250
250	3250	250
250	3250	750
250	3250	1250
250	3250	1750
250	3250	2250
250	3250	2750
250	3250	3250
250	3750	250
250	3750	750
250	3750	1250
250	3750	1750
250	3750	2250
250	3750	2750
250	3750	3250
250	4250	250
250	4250	750
250	4250	1250
250	4250	1750
250	4250	2250
250	4250	2750
250	4250	3250
250	4750	250
250	4750	750
250	4750	1250
250	4750	1750
250	4750	2250
250	4750	2750
250	4750	3250
250	5250	250
250	5250	750
250	5250	1250
250	5250	1750
250	5250	2250
250	5250	2750
250	5250	3250
250	5750	250
250	5750	750
250	5750	1250
250	5750	1750
250	5750	2250
250	5750	2750
250	5750	3250
750	250	250
750	250	750
750	250	1250
750	250	1750
750	250	2250
750	250	2750
750	250	3250
750	750	250
750	750	750
750	750	1250
750	750	1750
750	750	2250
750	750	2750
750	750	3250
750	1250	250
750	1250	750
750	1250	1250
750	1250	1750
750	1250	2250
750	1250	2750
750	1250	3250
750	1750	250
750	1750	750
750	1750	1250
750	1750	1750
750	1750	2250
750	1750	2750
750	1750	3250
750	2250	250
750	2250	750
750	2250	1250
750	2250	1750
750	2250	2250
750	2250	2750
750	2250	3250
750	2750	250
750	2750	750
750	2750	1250
750	2750	1750
750	2750	2250
750	2750	2750
750	2750	3250
750	3250	250
750	3250	750
750	3250	1250
750	3250	1750
750	3250	2250
750	3250	2750
750	3250	3250
750	3750	250
750	3750	750
750	3750	1250
750	3750	1750
750	3750	2250
750	3750	2750
750	3750	3250
750	4250	250
750	4250	750
750	4250	1250
750	4250	1750
750	4250	2250
750	4250	2750
750	4250	3250
750	4750	250
750	4750	750
750	4750	1250
750	4750	1750
750	4750	2250
750	4750	2750
750	4750	3250
750	5250	250
750	5250	750
750	5250	1250
750	5250	1750
750	5250	2250
750	5250	2750
750	5250	3250
750	5750	250
750	5750	750
750	5750	1250
750	5750	1750
750	5750	2250
750	5750	2750
750	5750	3250
1250	250	250
1250	250	750
1250	250	1250
1250	250	1750
1250	250	2250
1250	250	2750
1250	250	3250
1250	750	250
1250	750	750
1250	750	1250
1250	750	1750
1250	750	2250
1250	750	2750
1250	750	3250
1250	1250	250
1250	1250	750
1250	1250	1250
1250	1250	1750
1250	1250	2250
1250	1250	2750
1250	1250	3250
1250	1750	250
1250	1750	750
1250	1750	1250
1250	1750	1750
1250	1750	2250
1250	1750	2750
1250	1750	3250
1250	2250	250
1250	2250	750
1250	2250	1250
1125	2125	1625
1125	2125	1875
1125	2375	1625
1125	2375	1875
1375	2125	1625
1375	2125	1875
1375	2375	1625
1375	2375	1875
1250	2250	2250
1250	2250	2750
1250	2250	3250
1250	2750	250
1250	2750	750
1125	2625	1125
1125	2625	1375
1125	2875	1125
1125	2875	1375
1375	2625	1125
1375	2625	1375
1375	2875	1125
1375	2875	1375
1125	2625	1625
1125	2625	1875
1125	2875	1625
1125	2875	1875
1375	2625	1625
1375	2625	1875
1375	2875	1625
1375	2875	1875
1125	2625	2125
1125	2625	2375
1125	2875	2125
1125	2875	2375
1375	2625	2125
1375	2625	2375
1375	2875	2125
1375	2875	2375
1250	2750	2750
1250	2750	3250
1250	3250	250
1250	3250	750
1125	3125	1125
1125	3125	1375
1125	3375	1125
1125	3375	1375
1375	3125	1125
1375	3125	1375
1375	3375	1125
1375	3375	1375
1125	3125	1625
1125	3125	1875
1125	3375	1625
1125	3375	1875
1375	3125	1625
1375	3125	1875
1375	3375	1625
1375	3375	1875
1125	3125	2125
1125	3125	2375
1125	3375	2125
1125	3375	2375
1375	3125	2125
1375	3125	2375
1375	3375	2125
1375	3375	2375
1250	3250	2750
1250	3250	3250
1250	3750	250
1250	3750	750
1125	3625	1125
1125	3625	1375
1125	3875	1125
1125	3875	1375
1375	3625	1125
1375	3625	1375
1375	3875	1125
1375	3875	1375
1125	3625	1625
1125	3625	1875
1125	3875	1625
1125	3875	1875
1375	3625	1625
1375	3625	1875
1375	3875	1625
1375	3875	1875
1125	3625	2125
1125	3625	2375
1125	3875	2125
1125	3875	2375
1375	3625	2125
1375	3625	2375
1375	3875	2125
1375	3875	2375
1250	3750	2750
1250	3750	3250
1250	4250	250
1250	4250	750
1250	4250	1250
1250	4250	1750
1250	4250	2250
1250	4250	2750
1250	4250	3250
1250	4750	250
1250	4750	750
1250	4750	1250
1250	4750	1750
1250	4750	2250
1250	4750	2750
1250	4750	3250
1250	5250	250
1250	5250	750
1250	5250	1250
1250	5250	1750
1250	5250	2250
1250	5250	2750
1250	5250	3250
1250	5750	250
1250	5750	750
1250	5750	1250
1250	5750	1750
1250	5750	2250
1250	5750	2750
1250	5750	3250
1750	250	250
1750	250	750
1750	250	1250
1750	250	1750
1750	250	2250
1750	250	2750
1750	250	3250
1750	750	250
1750	750	750
1750	750	1250
1750	750	1750
1750	750	2250
1750	750	2750
1750	750	3250
1750	1250	250
1750	1250	750
1750	1250	1250
1750	1250	1750
1750	1250	2250
1750	1250	2750
1750	1250	3250
1750	1750	250
1750	1750	750
1750	1750	1250
1625	1625	1625
1625	1625	1875
1625	1875	1625
1625	1875	1875
1875	1625	1625
1875	1625	1875
1875	1875	1625
1875	1875	1875
1750	1750	2250
1750	1750	2750
1750	1750	3250
1750	2250	250
1750	2250	750
1625	2125	1125
1625	2125	1375
1625	2375	1125
1625	2375	1375
1875	2125	1125
1875	2125	1375
1875	2375	1125
1875	2375	1375
1625	2125	1625
1625	2125	1875
1625	2375	1625
1625	2375	1875
1875	2125	1625
1875	2125	1875
1875	2375	1625
1875	2375	1875
1625	2125	2125
1625	2125	2375
1625	2375	2125
1625	2375	2375
1875	2125	2125
1875	2125	2375
1875	2375	2125
1875	2375	2375
1750	2250	2750
1750	2250	3250
1750	2750	250
1625	2625	625
1625	2625	875
1625	2875	625
1625	2875	875
1875	2625	625
1875	2625	875
1875	2875	625
1875	2875	875
1625	2625	1125
1625	2625	1375
1625	2875	1125
1625	2875	1375
1875	2625	1125
1875	2625	1375
1875	2875	1125
1875	2875	1375
1625	2625	1625
1625	2625	1875
1625	2875	1625
1625	2875	1875
1875	2625	1625
1875	2625	1875
1875	2875	1625
1875	2875	1875
1625	2625	2125
1625	2625	2375
1625	2875	2125
1625	2875	2375
1875	2625	2125
1875	2625	2375
1875	2875	2125
1875	2875	2375
1625	2625	2625
1625	2625	2875
1625	2875	2625
1625	2875	2875
1875	2625	2625
1875	2625	2875
1875	2875	2625
1875	2875	2875
1750	2750	3250
1750	3250	250
1625	3125	625
1625	3125	875
1625	3375	625
1625	3375	875
1875	3125	625
1875	3125	875
1875	3375	625
1875	3375	875
1625	3125	1125
1625	3125	1375
1625	3375	1125
1625	3375	1375
1875	3125	1125
1875	3125	1375
1875	3375	1125
1875	3375	1375
1625	3125	1625
1625	3125	1875
1625	3375	1625
1625	3375	1875
1875	3125	1625
1875	3125	1875
1875	3375	1625
1875	3375	1875
1625	3125	2125
1625	3125	2375
1625	3375	2125
1625	3375	2375
1875	3125	2125
1875	3125	2375
1875	3375	2125
1875	3375	2375
1625	3125	2625
1625	3125	2875
1625	3375	2625
1625	3375	2875
1875	3125	2625
1875	3125	2875
1875	3375	2625
1875	3375	2875
1750	3250	3250
1750	3750	250
1625	3625	625
1625	3625	875
1625	3875	625
1625	3875	875
1875	3625	625
1875	3625	875
1875	3875	625
1875	3875	875
1625	3625	1125
1625	3625	1375
1625	3875	1125
1625	3875	1375
1875	3625	1125
1875	3625	1375
1875	3875	1125
1875	3875	1375
1625	3625	1625
1625	3625	1875
1625	3875	1625
1625	3875	1875
1875	3625	1625
1875	3625	1875
1875	3875	1625
1875	3875	1875
1625	3625	2125
1625	3625	2375
1625	3875	2125
1625	3875	2375
1875	3625	2125
1875	3625	2375
1875	3875	2125
1875	3875	2375
1625	3625	2625
1625	3625	2875
1625	3875	2625
1625	3875	2875
1875	3625	2625
1875	3625	2875
1875	3875	2625
1875	3875	2875
1750	3750	3250
1750	4250	250
1750	4250	750
1625	4125	1125
1625	4125	1375
1625	4375	1125
1625	4375	1375
1875	4125	1125
1875	4125	1375
1875	4375	1125
1875	4375	1375
1625	4125	1625
1625	4125	1875
1625	4375	1625
1625	4375	1875
1875	4125	1625
1875	4125	1875
1875	4375	1625
1875	4375	1875
1625	4125	2125
1625	4125	2375
1625	4375	2125
1625	4375	2375
1875	4125	2125
1875	4125	2375
1875	4375	2125
1875	4375	2375
1750	4250	2750
1750	4250	3250
1750	4750	250
1750	4750	750
1750	4750	1250
1750	4750	1750
1750	4750	2250
1750	4750	2750
1750	4750	3250
1750	5250	250
1750	5250	750
1750	5250	1250
1750	5250	1750
1750	5250	2250
1750	5250	2750
1750	5250	3250
1750	5750	250
1750	5750	750
1750	5750	1250
1750	5750	1750
1750	5750	2250
1750	5750	2750
1750	5750	3250
2250	250	250
2250	250	750
2250	250	1250
2250	250	1750
2250	250	2250
2250	250	2750
2250	250	3250
2250	750	250
2250	750	750
2250	750	1250
2250	750	1750
2250	750	2250
2250	750	2750
2250	750	3250
2250	1250	250
2250	1250	750
2250	1250	1250
2250	1250	1750
2250	1250	2250
2250	1250	2750
2250	1250	3250
2250	1750	250
2250	1750	750
2125	1625	1125
2125	1625	1375
2125	1875	1125
2125	1875	1375
2375	1625	1125
2375	1625	1375
2375	1875	1125
2375	1875	1375
2125	1625	1625
2125	1625	1875
2125	1875	1625
2125	1875	1875
2375	1625	1625
2375	1625	1875
2375	1875	1625
2375	1875	1875
2125	1625	2125
2125	1625	2375
2125	1875	2125
2125	1875	2375
2375	1625	2125
2375	1625	2375
2375	1875	2125
2375	1875	2375
2250	1750	2750
2250	1750	3250
2250	2250	250
2125	2125	625
2125	2125	875
2125	2375	625
2125	2375	875
2375	2125	625
2375	2125	875
2375	2375	625
2375	2375	875
2125	2125	1125
2125	2125	1375
2125	2375	1125
2125	2375	1375
2375	2125	1125
2375	2125	1375
2375	2375	1125
2375	2375	1375
2125	2125	1625
2125	2125	1875
2125	2375	1625
2125	2375	1875
2375	2125	1625
2375	2125	1875
2375	2375	1625
2375	2375	1875
2125	2125	2125
2125	2125	2375
2125	2375	2125
2125	2375	2375
2375	2125	2125
2375	2125	2375
2375	2375	2125
2375	2375	2375
2125	2125	2625
2125	2125	2875
2125	2375	2625
2125	2375	2875
2375	2125	2625
2375	2125	2875
2375	2375	2625
2375	2375	2875
2250	2250	3250
2250	2750	250
2125	2625	625
2125	2625	875
2125	2875	625
2125	2875	875
2375	2625	625
2375	2625	875
2375	2875	625
2375	2875	875
2125	2625	1125
2125	2625	1375
2125	2875	1125
2125	2875	1375
2375	2625	1125
2375	2625	1375
2375	2875	1125
2375	2875	1375
2125	2625	1625
2125	2625	1875
2125	2875	1625
2125	2875	1875
2375	2625	1625
2375	2625	1875
2375	2875	1625
2375	2875	1875
2125	2625	2125
2125	2625	2375
2125	2875	2125
2125	2875	2375
2375	2625	2125
2375	2625	2375
2375	2875	2125
[...]
CELL_DATA	2415
SCALARS model double 1
LOOKUP_TABLE table0
-0.544478
2.76647
0.68938
-6.06549
-10.3472
-12.959
-15.19
-0.726456
5.24304
-0.57687
-8.41991
-11.7263
-13.248
-14.5827
-0.892425
0.848599
-3.96449
-11.4671
-13.1414
-13.0366
-12.9725
-1.06543
7.27935
-4.25078
-13.6869
-13.9999
-12.2803
-10.7131
-0.354805
2.19842
-7.92981
-16.6192
-14.8469
-11.5408
-8.60583
-0.336556
4.04383
-12.9656
-20.6629
-16.3298
-11.5603
-7.56473
-1.22404
5.43187
-17.3489
-24.6798
-18.5546
-12.7766
-8.20306
-2.49676
16.0295
-17.2505
-26.7592
-20.7805
-14.9645
-10.532
-2.12202
13.813
-15.1332
-26.0633
-22.2131
-17.4262
-13.9377
-0.7231
6.7231
-8.75718
-21.6479
-21.5729
-19.143
-17.4098
0.0577138
3.13438
-0.69446
-14.971
-19.0373
-19.4965
-19.8441
-0.530728
8.27379
3.71057
-11.6948
-17.2194
-18.7815
-19.9616
-0.0150075
1.3598
0.752258
-6.45076
-10.379
-12.3994
-13.9948
-0.857307
5.78702
-1.15109
-8.58782
-11.1125
-11.9894
-12.6841
-1.01144
6.08852
-3.07123
-10.5707
-11.1636
-10.4289
-9.77033
-1.74209
8.2105
-5.55125
-12.033
-10.1622
-7.81517
-5.78897
-0.533167
-0.793085
-10.9098
-13.7073
-8.57739
-4.9091
-1.84164
-0.853037
-4.0217
-16.2985
-15.5896
-7.28243
-2.9118
0.699277
-1.0067
-1.75627
-18.4231
-17.7547
-7.88849
-3.16789
0.707933
-2.38761
8.42953
-16.4229
-19.6493
-10.5573
-5.98701
-2.13778
-2.25081
5.21018
-14.8885
-21.8043
-15.5482
-10.762
-7.08687
-1.29732
6.76952
-9.91191
-20.7192
-18.4326
-15.134
-12.5644
-0.719074
4.02499
-4.54495
-17.0075
-18.6995
-17.66
-16.8189
-0.123902
1.75875
-2.39711
-14.7889
-17.6843
-17.5788
-17.5044
0.434986
0.972271
0.201594
-7.75238
-10.5319
-11.2283
-11.6303
0.490477
-3.66536
-4.61929
-9.2743
-9.8104
-9.39899
-8.9963
-0.180365
-2.31045
-6.38937
-9.11507
-6.86033
-5.07748
-3.60745
-0.294867
-4.47921
-9.0122
-6.92944
-1.17259
1.54381
3.71878
-1.56739
-7.37154
-10.4131
-11.4211
-5.38229
-9.55517
-3.0403
-3.44108
3.42607
-0.184552
7.24356
6.93342
9.38754
11.3208
-1.15368
-10.6891
-18.4493
-8.41555
-19.5475
-8.92466
-12.5091
-1.04828
-12.8932
-0.645724
-8.86711
-2.01866
-8.11643
-0.880546
2.84188
10.8069
5.13583
13.5223
4.50205
4.80179
6.98406
7.70961
18.4415
18.8633
21.7367
22.5574
16.3667
16.8939
-2.12343
-16.8279
-20.9802
-9.7723
-21.923
-10.979
-14.1113
-0.979742
-15.8185
-2.53539
-8.37096
-1.02845
-9.05739
-1.96537
6.0459
14.6145
5.36147
13.7696
7.52218
8.5435
7.02
8.27302
23.2998
24.3983
22.8996
24.2136
18.442
18.2641
-3.39012
-15.9002
-21.5474
-12.0422
-21.0546
-14.6063
-17.4901
-5.35314
-18.832
-9.62367
-10.1182
-3.818
-11.5309
-6.88061
3.05749
10.7826
-0.690557
5.44651
5.42281
6.79918
3.07692
4.37914
20.4459
21.9089
15.9353
17.3726
14.3776
14.4314
-1.88469
-9.91111
-19.7587
-12.4104
-0.0183511
3.59645
6.41265
-1.14821
-1.19833
-16.1774
-19.1473
-11.2501
-6.73033
-3.0381
-0.387426
6.74148
-9.19986
-20.0187
-17.3978
-13.6928
-10.8327
-0.649652
3.72486
-7.79457
-19.0142
-17.8582
-14.8513
-12.6072
1.31179
-4.6254
-6.91448
-11.4019
-11.0357
-9.64732
-8.55301
0.192752
1.59164
-5.88377
-9.58403
-7.72657
-5.80111
-4.21236
0.0405327
0.737229
-5.40672
-4.87689
0.0890011
2.45811
4.40832
-0.109441
-6.20502
-3.74693
-5.37679
-0.366902
0.617061
6.65428
1.72199
7.15152
9.65099
16.0263
13.8333
15.0875
16.2145
-1.18365
-4.93512
-9.07018
0.875865
-4.31058
7.01493
2.51411
13.458
10.0527
22.564
6.54261
13.7226
13.0705
20.9263
19.3918
26.5351
30.3318
37.7205
18.8034
16.0304
27.7006
25.7993
32.9162
30.3359
43.631
41.3446
30.8898
28.8346
-1.3536
-14.4207
0.81499
-16.236
1.0112
-6.46794
13.0621
-7.69443
15.8475
-1.04139
11.8425
1.17
15.5391
18.2535
32.4582
25.5401
41.3279
19.3932
27.6354
24.5454
32.9558
41.3688
48.5073
50.9662
57.5021
34.6845
34.0418
40.0649
39.7545
53.688
51.4025
61.8406
59.1174
36.9325
26.0395
41.9151
31.3164
52.4869
41.2284
58.2989
47.1719
38.6338
-4.56692
-19.7962
-1.12893
-24.0798
-4.7086
-9.25776
17.402
-11.9087
15.8913
1.63387
17.2635
-0.0710156
16.1776
30.3701
47.2
30.8263
48.0842
27.4358
35.8301
27.2399
35.466
57.253
63.067
58.5147
63.7993
43.0291
42.7926
42.9782
42.8537
66.7681
63.5757
67.4304
64.0978
43.8756
33.6102
43.5529
34.121
61.4004
50.4631
61.3357
51.0951
42.105
-6.28944
-26.2106
-8.33883
-27.8056
-15.8992
-16.478
9.51344
-22.5291
-2.62457
-3.96554
11.9566
-9.60257
5.12989
25.3615
42.6809
14.1866
31.3342
23.6206
31.4919
16.8994
24.0585
53.7851
58.978
43.4251
48.9136
39.6926
39.7917
33.3638
33.6201
63.384
60.4182
54.9551
52.7745
40.6522
32.7713
35.7862
30.4375
57.8367
49.0411
50.8317
44.4999
37.0777
-4.9223
-29.3561
-16.0894
-2.14917
-21.1913
-11.1207
0.131269
16.5822
-11.7558
1.40657
8.06673
14.0021
-0.753421
3.65628
29.5123
35.2211
15.1449
20.2422
24.6752
24.3798
15.6457
15.6469
43.4285
42.1111
30.6085
30.2731
25.9943
24.8863
-0.438872
-22.9322
-22.2493
-10.7954
2.78712
5.62544
9.84419
-0.499088
-2.58587
-17.6045
-22.4586
-14.3061
-7.87473
-2.87816
-0.169111
3.51534
-14.0135
-22.8841
-17.0532
-10.8231
-6.16865
0.543758
1.33796
-11.1282
-14.4083
-11.0709
-7.78729
-5.44493
0.3082
4.13898
-6.35917
-8.93575
-5.0241
-1.93967
0.506814
0.0351235
-0.817478
-3.65925
1.64873
8.2295
10.3884
12.2482
-0.000377563
0.552078
-3.37496
3.36742
5.16544
13.8437
1.83243
10.049
13.1073
22.8815
7.98729
13.3624
19.7635
26.0744
15.0747
20.551
29.7705
35.8344
19.3796
15.5854
32.5632
29.3459
26.9886
23.5126
41.5969
38.4158
29.6569
28.5006
1.27471
-3.52117
10.0747
4.93193
22.0257
7.28512
23.6132
19.2302
40.392
15.7233
26.7592
29.5762
42.3253
29.6381
40.9165
51.2046
63.4238
34.0209
40.546
50.3698
56.274
48.5009
54.0272
70.537
74.2879
46.0541
43.0909
60.2948
56.7177
58.1678
54.4169
75.9011
70.5563
45.348
32.2267
57.1982
44.3512
55.5174
42.3204
68.3888
55.1346
46.1569
2.69259
10.1093
33.8764
15.5334
45.9378
33.955
62.2585
52.8365
87.8729
45.4174
59.4315
61.374
75.8513
76.8158
88.8554
104.335
114.387
67.4157
71.8878
82.9783
85.4424
94.1256
94.8831
116.437
113.309
73.9701
69.2012
85.4221
79.176
93.2255
85.5523
108.076
97.8088
66.9882
54.5041
74.4999
61.7675
79.996
66.1448
89.1523
74.4577
60.8684
8.46568
22.5461
57.183
27.8815
63.1454
76.6196
114.145
98.816
133.205
74.603
88.411
80.7528
93.3523
129.437
135.529
144.801
146.401
94.1931
94.5648
98.1177
97.0548
133.542
126.418
141.093
131.129
92.7961
85.2773
94.5306
86.4509
118.069
105.603
121.1
107.534
78.7996
65.9262
79.1578
66.7181
94.6289
79.3687
95.4796
80.3927
66.7827
7.53082
24.8647
57.9935
10.6231
39.4268
105.327
134.008
84.7577
108.83
75.404
87.6016
57.387
70.8353
142.187
141.619
117.518
119.573
92.7394
91.6138
78.1806
78.5157
135.767
125.434
117.184
109.452
89.8488
82.2429
79.1048
72.9736
116.006
102.94
103.115
92.1735
75.2554
63.9942
67.2549
57.7424
91.3064
77.3417
82.403
70.4787
60.5507
-6.86978
-9.79496
13.0304
-32.2864
-18.7939
38.3834
61.4428
-9.39647
10.2131
30.9591
46.6726
4.70672
21.3552
75.9677
84.8739
31.9217
47.2087
57.3082
59.9042
34.5255
38.7878
88.9867
85.881
57.615
59.0016
63.9376
59.8421
46.5016
44.3371
84.4404
76.6926
62.9263
58.4953
55.8283
47.3012
43.0522
37.3096
69.8058
60.4395
54.9173
48.9534
43.8821
-2.70139
-46.5886
-14.6664
0.996881
-24.3195
-13.8096
-0.756019
16.142
-16.5725
-4.36498
13.4541
17.5073
-3.01009
-0.275848
29.5261
33.2411
8.38963
11.7178
28.5429
27.0488
12.9011
12.1836
41.7108
39.704
23.1787
22.6176
17.8461
22.8743
-0.10871
-8.54682
-23.0346
-23.0237
-10.8331
-1.82026
4.94093
-0.393545
-2.41559
-20.7073
-25.7645
-15.8432
-6.6794
0.0251908
1.18299
0.0979384
-13.1718
-14.6301
-9.81486
-5.87643
-3.09097
0.504662
3.28587
-7.60966
-7.8008
-2.42876
1.06465
3.78742
3.48758
-9.069
-8.43833
-2.61454
-4.1001
3.44252
-7.65508
-2.25642
-3.49294
3.97168
-2.09427
1.48978
7.38926
12.2148
-0.615438
3.14985
9.01067
14.0358
14.2722
15.8951
17.4239
2.70999
-10.7474
1.52599
2.00635
14.6333
-10.8617
1.38751
1.92051
15.061
4.50244
13.6597
19.4018
29.9084
5.82136
15.3986
22.5349
33.5161
20.0582
25.8548
37.567
43.4303
22.7047
28.6718
41.7638
47.555
31.762
28.2623
48.5065
45.1159
34.7574
31.3623
52.4048
48.9686
39.5633
36.516
6.06729
15.653
32.4524
33.7183
57.2331
19.8166
36.8184
43.0577
66.7094
41.2671
52.5979
70.0224
81.2472
47.4766
58.9025
80.5501
91.1694
60.1204
64.6785
87.0296
88.6924
66.4937
70.5354
96.2316
96.7023
67.5561
62.9989
88.1266
81.1732
72.7721
67.8377
94.9313
87.1275
62.2509
48.6156
76.7918
62.882
66.2502
52.572
81.4882
67.3787
57.599
-2.31018
33.8103
1.92483
52.5836
3.11357
45.132
5.5307
63.3753
58.2763
89.5023
91.2812
128.503
73.3572
105.287
113.766
152.026
104.914
114.211
143.656
148.214
121.039
128.627
166.596
167.778
116.334
113.494
144.69
136.131
128.905
123.952
160.898
149.089
108.465
98.2368
126.176
112.384
116.995
105.354
136.38
120.586
89.9257
74.9094
100.42
84.0818
95.4478
79.9494
106.707
89.5932
75.5529
6.74798
75.4246
15.6377
110.205
13.9229
98.0484
25.0108
139.421
133.648
170.224
175.76
204.927
166.987
203.644
222.404
250.868
180.701
177.647
206.187
194.724
211.183
202.424
243.712
223.691
167.278
152.81
178.494
159.675
186.891
167.953
200.538
176.227
138.444
121.612
142.696
124.24
150.017
130.662
155.059
133.735
106.87
89.5949
108.167
90.8504
113.735
95.4439
115.32
96.8449
83.2118
20.0716
128.443
24.3949
128.116
34.4037
174.403
42.3276
180.939
197.337
216.494
177.784
187.043
256.647
274.214
244.294
243.275
208.365
191.907
179.13
165.946
250.469
222.781
219.402
194.921
173.778
154.051
152.134
135.849
196.527
170.823
173.343
151.476
137.417
119.419
122.885
107.512
149.77
128.84
134.375
116.332
103.83
87.6384
94.2088
80.3636
110.922
93.5657
100.898
86.0443
76.2812
19.3505
107.665
121.046
26.8077
47.1799
165.658
165.35
62.6937
75.8302
124.109
122.071
62.7091
72.9556
156.823
145.858
84.472
89.7371
117.731
108.171
78.8223
76.3759
135.427
121.482
92.0121
86.7867
101.391
90.1732
76.5347
69.8261
111.305
97.9626
84.5124
76.3671
80.5045
69.9241
64.3634
57.7992
86.4703
75.1862
69.2144
62.2355
56.6276
-8.55929
-43.5874
15.6767
31.757
-8.20244
4.51686
27.9347
42.0972
-1.90566
10.2889
43.9246
46.0787
17.7852
20.772
52.8268
53.6328
23.3249
25.8171
52.1844
49.1136
30.9953
30.1145
58.2159
54.3723
35.2181
34.0081
27.3598
31.4491
-1.60805
-10.356
-23.7709
-21.1093
-7.21208
2.35229
9.85152
-0.688939
-1.17734
-23.4743
-26.8463
-14.7177
-4.10663
3.76806
1.80898
-11.5144
-11.2097
-11.0093
-7.3231
-4.46123
-2.23135
1.34464
-2.14764
-7.51175
-6.04484
-0.815265
2.13242
4.52052
2.91993
-7.25935
-7.04252
-2.57321
-3.36457
3.50349
-6.59437
-3.35624
-3.86778
1.80706
0.00409501
3.60573
9.20717
14.1088
0.122689
3.10637
7.96486
12.2305
15.2484
16.6922
18.0467
3.66481
-10.785
0.761939
0.39346
12.897
-11.8187
-2.56446
-2.26728
7.62871
5.32087
14.8466
21.6932
32.8813
3.12253
12.1959
17.4087
28.3346
22.6554
28.6471
41.5921
47.4952
19.9852
25.8198
37.2213
43.3442
34.9625
31.968
52.5644
49.5017
32.4098
30.1358
49.04
46.7821
40.3922
37.1208
6.33023
17.8174
34.5127
40.9675
64.4143
11.3069
26.5478
28.932
51.6569
46.4721
58.2134
79.4241
90.4528
39.0317
50.9377
67.5133
79.5468
66.2717
70.4723
96.0098
96.6694
59.6773
64.6009
86.6109
88.7112
72.9128
68.2957
95.086
87.5436
68.0287
64.4119
88.6412
82.4464
66.3848
53.3971
81.6934
68.2287
62.7192
51.3196
77.4121
65.5712
58.3121
4.34821
42.2685
6.16146
60.5756
3.18435
28.8416
6.23187
44.32
71.023
102.915
110.636
149.386
53.0563
83.8936
85.1638
122.725
119.824
127.922
165.343
167.156
102.233
112.583
141.053
146.883
128.731
123.986
160.835
149.231
116.069
113.709
144.755
136.66
117.196
105.764
136.657
121.024
109.113
99.4823
127.045
113.703
95.7128
80.7718
107.042
90.3968
90.7048
77.4337
101.409
86.5245
76.3932
13.5019
91.4618
24.3366
134.683
9.88674
66.3253
17.845
97.6023
162.874
200.741
218.832
248.462
125.869
164.322
169.053
200.492
210.055
202.011
243.085
223.655
178.598
176.934
205.446
195.027
187.015
168.244
200.921
176.695
167.871
153.762
179.787
161.112
150.393
131.151
155.541
134.285
139.595
123.076
144.145
125.879
114.144
96.2501
115.794
97.6635
108.083
92.0414
109.574
93.3323
84.1614
35.4736
176.971
43.4802
182.333
28.0895
133.062
32.7859
140.622
255.826
273.589
246.032
244.621
197.265
216.369
184.771
191.534
250.773
223.251
220.64
195.819
209.984
193.499
182.973
168.57
197.194
171.46
174.221
152.232
175.811
155.945
154.702
138.058
150.344
129.447
135.004
116.978
139.118
121.217
124.734
109.425
111.445
94.3993
101.451
86.8937
105.378
90.1664
95.8505
82.9635
77.222
17.1571
168.248
167.549
64.9749
77.8592
116.483
127.198
33.4152
52.3881
158.456
146.887
85.863
90.5815
128.709
124.937
66.4886
75.2641
136.359
122.267
92.8391
87.5166
120.413
110.461
81.2202
78.5368
111.936
98.6221
85.0971
77.0114
103.246
92.1361
78.2728
71.776
87.0284
76.0284
69.7361
62.9911
82.1864
72.5747
65.9297
60.1749
57.3644
-6.31855
-42.7072
28.7889
42.5716
-1.71265
10.2702
18.0541
33.1202
-7.24123
4.91123
53.439
54.2276
23.6308
26.1504
45.807
47.9481
19.0017
22.1019
58.7071
54.9572
35.5397
34.4238
53.7097
50.9657
32.1513
31.5961
27.7693
31.7828
-1.44068
-14.1932
-25.8766
-22.1663
-7.80363
1.99663
9.76778
-0.0168047
-5.02303
-26.0103
-28.5304
-15.8229
-4.75717
3.51365
0.616411
-0.25529
-0.861121
-5.13712
-5.05767
-4.37242
-3.32039
0.438854
-2.03173
-4.45313
-4.56499
-1.03397
0.672453
2.35915
1.49463
-5.12005
-4.42268
2.54141
11.0077
12.3994
13.8796
1.45055
-6.44103
0.0440969
8.56484
11.3492
21.2276
-2.65792
3.61076
5.45257
12.9448
15.1621
20.7827
29.6866
35.9782
8.8678
14.0812
20.5022
26.6899
28.3007
26.9943
42.6569
41.4559
22.7213
22.4037
34.2955
34.1686
32.0735
30.1488
0.868347
5.42941
16.3922
16.0454
34.5339
1.75592
6.63567
6.81546
18.3712
27.893
39.1799
49.1355
61.676
15.8173
25.5644
29.1365
41.1152
48.3612
54.1979
70.4712
74.6204
34.6869
41.1847
51.1127
57.1208
59.0796
56.8688
76.8859
72.7373
47.417
46.536
61.8257
59.8191
56.275
47.3199
69.395
60.029
47.6679
41.9354
58.5708
52.4356
48.1639
1.93507
30.3691
56.5771
50.4035
82.9667
10.9451
29.6218
19.5238
43.2221
74.6131
87.2827
102.589
113.365
44.7552
58.4509
61.4863
75.615
94.3193
95.529
117.15
114.439
68.481
73.1399
84.6838
87.297
94.4212
87.6601
109.611
100.016
75.7707
72.1549
87.649
82.2311
81.2118
70.4521
90.7393
78.5779
68.4085
60.5139
76.5752
67.6083
63.2585
3.50755
31.0739
6.17961
37.7949
-0.332596
6.2572
-1.73177
5.67012
73.983
109.995
96.3812
130.835
27.8093
56.0359
32.1465
63.3261
128.67
135.466
145.782
147.682
76.0359
89.3288
83.8007
95.6181
135.03
128.171
143.529
133.565
96.79
97.1548
101.696
100.4
120.028
108.024
123.49
110.213
95.5422
88.5952
97.7801
90.0781
96.6083
83.5104
97.7752
84.5875
81.5033
71.9236
82.293
72.7794
69.4952
1.75429
108.813
136.14
97.1456
115.966
31.4379
60.8768
23.4535
45.6077
145.854
144.439
123.564
123.515
80.4371
91.1653
64.0253
75.1984
139.136
128.488
121.186
112.922
97.1871
95.6036
83.173
82.9402
118.749
105.855
106.063
95.2708
93.4873
86.1497
82.9661
77.1164
93.813
81.5926
85.0654
74.9127
78.6027
69.9983
70.7187
63.9258
63.233
-10.2502
52.4168
69.8753
-0.827105
16.7308
5.55664
19.5766
-21.1207
-11.5483
82.4548
88.8907
37.0246
50.3382
37.6113
50.8772
10.0212
24.5353
93.0767
89.4697
61.3335
62.4695
62.3556
64.4844
39.1812
43.2521
87.3993
79.9003
65.7448
61.768
67.8243
64.1755
50.1954
48.7865
72.6822
65.3338
57.892
53.6719
59.9627
55.4888
48.4143
46.2406
46.0084
-4.05412
-46.9015
2.65606
18.0148
-14.5914
-3.38132
-10.0138
2.53605
-19.7949
-11.6252
32.7563
36.5405
11.0037
14.5632
18.1975
22.3862
2.68833
5.80139
44.375
43.1002
25.5692
25.7176
32.4176
32.4466
17.9072
18.6309
19.0147
23.8991
-0.144898
-11.049
-25.998
-25.3231
-12.2882
-2.7416
4.84231
-0.0996175
0.228938
-24.7636
-30.0038
-18.8129
-8.3715
-0.532303
0.604967
-1.89457
2.70807
-2.64888
-5.2358
-6.18225
-6.2246
0.413285
-1.65778
-2.89196
-4.81814
-3.86039
-3.08864
-2.0577
0.765947
-2.95621
-5.05531
-2.52547
2.17203
4.4095
6.46574
1.04784
-4.9633
-3.82419
3.88113
8.48153
11.5954
17.2094
-1.05512
2.25174
3.95102
8.33207
14.3466
16.4576
18.4119
-0.604279
-6.13259
4.32545
12.4689
11.1475
21.7237
-4.99053
0.549921
-1.86058
6.07083
21.0617
27.6589
32.0135
39.0875
8.99661
15.0265
15.5364
22.5863
34.3624
33.9849
45.7663
45.3925
22.3827
22.6637
30.9629
31.6807
31.2079
31.4858
-1.94602
-5.18577
8.09184
-2.43785
12.182
-16.7213
-8.65736
-15.4282
-7.56013
18.6092
31.781
26.6368
41.4632
-0.576478
10.73
2.24093
15.325
43.3914
50.3617
53.6755
60.0361
22.2902
29.9328
28.1699
36.0122
56.0613
55.1109
64.6999
62.9135
37.4263
38.23
43.4114
44.0863
53.3699
47.4681
60.7565
54.7612
38.9955
35.5464
45.1897
41.9554
42.0958
-5.25305
-1.62856
15.8895
-4.97143
15.4734
-15.3961
-6.71936
-18.3051
-8.8114
32.9089
48.54
34.6918
50.6005
4.2045
18.2648
3.61298
18.1583
60.8494
66.3679
62.9658
67.8157
31.8869
39.6485
32.3321
39.8863
70.2162
67.6852
71.3989
68.5411
47.0877
47.581
47.5513
47.9931
64.8748
58.7047
65.3477
59.3988
48.5314
45.3536
48.8241
45.8914
46.1249
-8.86873
-10.6213
9.46802
-17.1148
-2.58776
-23.2143
-14.3158
-28.5743
-22.33
30.2514
46.0682
19.7099
35.1175
0.0255505
14.4328
-5.51412
7.73696
58.8846
63.5591
48.9309
53.9138
29.0438
36.291
22.591
29.2323
67.7134
65.1378
59.5086
57.7758
44.5116
45.114
38.3569
39.244
61.9283
56.8197
54.4014
50.9559
46.0183
43.6912
40.8722
39.7175
41.0358
-6.1603
-34.0764
5.61989
20.1606
-7.36017
4.30373
-10.7299
0.285919
-15.6205
-8.15523
35.2027
40.5122
19.9571
24.8115
15.1508
20.5851
6.40543
10.5196
48.1221
47.4702
34.6012
34.9561
30.8015
31.7878
21.9199
23.1605
25.0891
27.9094
-1.10489
-23.6285
-22.9321
-13.3398
0.326327
5.62432
11.5669
-0.579485
3.52757
-19.96
-26.5982
-17.5583
-9.185
-2.62062
-0.415613
7.05374
-19.6354
-29.0088
-21.4439
-12.9177
-6.51804
1.22392
-4.28637
-0.629765
-5.26347
-8.08252
-9.40548
-10.0829
1.17875
-4.91284
-5.28659
-7.69309
-7.98225
-7.74112
-7.29315
0.491552
1.56794
-6.1627
-8.30277
-5.895
-3.71997
-1.64724
-0.168542
-4.74289
-9.88224
-7.23347
-1.33477
2.40537
6.09016
0.853047
-13.1381
-14.1549
-1.14359
3.95876
2.85675
8.80936
-8.25759
-5.00952
-5.60962
-1.70371
5.5712
9.17624
14.2973
-0.451049
-20.3913
-12.8881
-3.72957
-11.5464
-1.69282
-17.458
-12.061
-16.4412
-10.8711
6.68756
13.3885
9.80552
16.9715
-3.58212
0.875728
-2.00718
2.84788
20.4433
21.7791
25.4204
27.1092
7.61087
8.78375
11.6583
13.2785
13.4
20.6231
-2.44667
-19.5102
-11.0192
-0.753448
-11.9143
-1.55274
-16.2815
-10.6699
-16.9314
-11.3968
11.4911
18.837
11.1798
18.432
-1.3509
3.67945
-1.79486
3.16065
28.0388
29.8717
28.1425
30.0519
13.552
15.4028
13.5733
15.5192
15.3398
22.651
-2.30783
-20.6103
-13.9874
-4.22305
-16.1172
-8.43981
-17.8244
-12.8821
-18.342
-15.0917
8.65915
15.4005
4.01043
9.40348
-3.40513
1.06248
-5.8979
-2.60797
25.6046
27.5472
20.2512
22.0628
11.7774
13.6818
8.54574
10.2182
12.1323
18.9594
-1.79415
-11.5747
-18.3857
-13.2449
-1.25225
4.1152
10.3238
-1.72055
3.21645
-15.6534
-20.45
-12.4664
-6.07921
-0.404737
-0.596741
4.00674
-13.6284
-24.0095
-20.2019
-14.3531
-9.74215
-0.437084
5.99056
-13.5778
-24.5551
-21.6628
-16.2247
-12.1364
1.12955
-0.00644583
-4.50271
-9.55098
-11.6869
-12.6827
-13.6028
1.70406
-4.74924
-5.87507
-10.0284
-11.4174
-11.6107
-11.7025
0.664937
-0.902891
-6.6017
-11.3991
-11.1398
-9.61069
-8.09314
0.0145987
3.23318
-8.43395
-13.6916
-10.7679
-6.97225
-3.38972
0.450084
-3.31201
-14.1973
-16.9422
-10.2928
-4.31586
1.36623
0.577932
-1.87088
-16.3153
-18.4004
-10.4001
-2.56424
4.82795
0.353523
-6.02157
-16.8021
-18.7441
-10.0474
-2.129
5.68105
-0.262369
-4.10569
-15.4189
-18.9658
-11.2118
-3.95384
3.19373
-1.62025
0.632747
-12.4285
-19.6373
-14.182
-7.94669
-2.17609
-1.01993
7.57388
-9.50794
-20.1771
-17.6989
-12.8898
-8.79682
-0.513142
1.39572
-8.72945
-19.5092
-19.7893
-16.803
-14.482
0.0564937
6.75906
-5.57374
-17.6798
-19.3192
-17.2521
-15.6927
0.659382
1.68988
-5.08382
-10.8348
-12.9115
-13.7462
-14.6559
0.561137
3.83296
-2.69684
-9.73982
-12.0982
-12.5813
-12.8739
0.517263
-0.292431
-5.68764
-11.4585
-12.0627
-10.9219
-9.70868
-0.23836
7.62076
-7.22889
-14.5262
-12.5758
-9.03647
-5.74281
0.119662
2.04085
-13.0943
-18.3736
-13.2242
-7.24889
-1.83725
0.672748
-1.85331
-15.756
-20.2962
-13.6992
-6.01121
0.947344
0.481653
-3.68547
-14.4756
-20.0523
-13.5441
-5.7352
1.58017
-0.0523456
1.28935
-11.5423
-19.2927
-14.075
-7.10864
-0.51816
-0.256899
1.0373
-10.1063
-19.3422
-15.8709
-10.1481
-4.98872
-0.594192
7.77533
-8.85839
-19.6622
-18.1087
-13.8928
-10.4902
-0.531303
6.57471
-7.74237
-18.1109
-18.9052
-16.6684
-15.133
-0.292243
7.55578
-2.57054