# vtk DataFile Version 3.0
Gravity inversion using rectangular prisms
ASCII
DATASET UNSTRUCTURED_GRID

POINTS	5796	double
250	250	250
250	250	750
250	250	1250
250	250	1750
250	250	2250
250	250	2750
250	250	3250
250	750	250
250	750	750
250	750	1250
250	750	1750
250	750	2250
250	750	2750
250	750	3250
250	1250	250
250	1250	750
250	1250	1250
250	1250	1750
250	1250	2250
250	1250	2750
250	1250	3250
250	1750	250
250	1750	750
250	1750	1250
250	1750	1750
250	1750	2250
250	1750	2750
250	1750	3250
250	2250	250
250	2250	750
250	2250	1250
250	2250	1750
250	2250	2250
250	2250	2750
250	2250	3250
250	2750	250
250	2750	750
250	2750	1250
250	2750	1750
250	2750	2250
250	2750	2750
250	2750	3250
250	3250	250
250	3250	750
250	3250	1250
250	3250	1750
250	3250	2250
250	3250	2750
250	3250	3250
250	3750	250
125	3625	625
125	3625	875
125	3875	625
125	3875	875
375	3625	625
375	3625	875
375	3875	625
375	3875	875
125	3625	1125
125	3625	1375
125	3875	1125
125	3875	1375
375	3625	1125
375	3625	1375
375	3875	1125
375	3875	1375
250	3750	1750
250	3750	2250
250	3750	2750
250	3750	3250
250	4250	250
125	4125	625
125	4125	875
125	4375	625
125	4375	875
375	4125	625
375	4125	875
375	4375	625
375	4375	875
125	4125	1125
125	4125	1375
125	4375	1125
125	4375	1375
375	4125	1125
375	4125	1375
375	4375	1125
375	4375	1375
250	4250	1750
250	4250	2250
250	4250	2750
250	4250	3250
250	4750	250
250	4750	750
250	4750	1250
250	4750	1750
250	4750	2250
250	4750	2750
250	4750	3250
250	5250	250
250	5250	750
250	5250	1250
250	5250	1750
250	5250	2250
250	5250	2750
250	5250	3250
250	5750	250
250	5750	750
250	5750	1250
250	5750	1750
250	5750	2250
250	5750	2750
250	5750	3250
750	250	250
750	250	750
750	250	1250
750	250	1750
750	250	2250
750	250	2750
750	250	3250
750	750	250
750	750	750
750	750	1250
750	750	1750
750	750	2250
750	750	2750
750	750	3250
750	1250	250
750	1250	750
750	1250	1250
750	1250	1750
750	1250	2250
750	1250	2750
750	1250	3250
750	1750	250
750	1750	750
750	1750	1250
750	1750	1750
750	1750	2250
750	1750	2750
750	1750	3250
750	2250	250
750	2250	750
750	2250	1250
750	2250	1750
750	2250	2250
750	2250	2750
750	2250	3250
750	2750	250
750	2750	750
750	2750	1250
750	2750	1750
750	2750	2250
750	2750	2750
750	2750	3250
750	3250	250
750	3250	750
750	3250	1250
750	3250	1750
750	3250	2250
750	3250	2750
750	3250	3250
750	3750	250
625	3625	625
625	3625	875
625	3875	625
625	3875	875
875	3625	625
875	3625	875
875	3875	625
875	3875	875
750	3750	1250
750	3750	1750
750	3750	2250
750	3750	2750
750	3750	3250
750	4250	250
625	4125	625
625	4125	875
625	4375	625
625	4375	875
875	4125	625
875	4125	875
875	4375	625
875	4375	875
750	4250	1250
750	4250	1750
750	4250	2250
750	4250	2750
750	4250	3250
750	4750	250
750	4750	750
750	4750	1250
750	4750	1750
750	4750	2250
750	4750	2750
750	4750	3250
750	5250	250
750	5250	750
750	5250	1250
750	5250	1750
750	5250	2250
750	5250	2750
750	5250	3250
750	5750	250
750	5750	750
750	5750	1250
750	5750	1750
750	5750	2250
750	5750	2750
750	5750	3250
1250	250	250
1250	250	750
1250	250	1250
1250	250	1750
1250	250	2250
1250	250	2750
1250	250	3250
1250	750	250
1250	750	750
1250	750	1250
1250	750	1750
1250	750	2250
1250	750	2750
1250	750	3250
1250	1250	250
1250	1250	750
1250	1250	1250
1250	1250	1750
1250	1250	2250
1250	1250	2750
1250	1250	3250
1250	1750	250
1250	1750	750
1250	1750	1250
1250	1750	1750
1250	1750	2250
1250	1750	2750
1250	1750	3250
1250	2250	250
1250	2250	750
1250	2250	1250
1125	2125	1625
1125	2125	1875
1125	2375	1625
1125	2375	1875
1375	2125	1625
1375	2125	1875
1375	2375	1625
1375	2375	1875
1250	2250	2250
1250	2250	2750
1250	2250	3250
1250	2750	250
1250	2750	750
1125	2625	1125
1125	2625	1375
1125	2875	1125
1125	2875	1375
1375	2625	1125
1375	2625	1375
1375	2875	1125
1375	2875	1375
1125	2625	1625
1125	2625	1875
1125	2875	1625
1125	2875	1875
1375	2625	1625
1375	2625	1875
1375	2875	1625
1375	2875	1875
1125	2625	2125
1125	2625	2375
1125	2875	2125
1125	2875	2375
1375	2625	2125
1375	2625	2375
1375	2875	2125
1375	2875	2375
1125	2625	2625
1125	2625	2875
1125	2875	2625
1125	2875	2875
1375	2625	2625
1375	2625	2875
1375	2875	2625
1375	2875	2875
1125	2625	3125
1125	2625	3375
1125	2875	3125
1125	2875	3375
1375	2625	3125
1375	2625	3375
1375	2875	3125
1375	2875	3375
1250	3250	250
1250	3250	750
1125	3125	1125
1125	3125	1375
1125	3375	1125
1125	3375	1375
1375	3125	1125
1375	3125	1375
1375	3375	1125
1375	3375	1375
1125	3125	1625
1125	3125	1875
1125	3375	1625
1125	3375	1875
1375	3125	1625
1375	3125	1875
1375	3375	1625
1375	3375	1875
1125	3125	2125
1125	3125	2375
1125	3375	2125
1125	3375	2375
1375	3125	2125
1375	3125	2375
1375	3375	2125
1375	3375	2375
1125	3125	2625
1125	3125	2875
1125	3375	2625
1125	3375	2875
1375	3125	2625
1375	3125	2875
1375	3375	2625
1375	3375	2875
1125	3125	3125
1125	3125	3375
1125	3375	3125
1125	3375	3375
1375	3125	3125
1375	3125	3375
1375	3375	3125
1375	3375	3375
1250	3750	250
1125	3625	625
1125	3625	875
1125	3875	625
1125	3875	875
1375	3625	625
1375	3625	875
1375	3875	625
1375	3875	875
1125	3625	1125
1125	3625	1375
1125	3875	1125
1125	3875	1375
1375	3625	1125
1375	3625	1375
1375	3875	1125
1375	3875	1375
1125	3625	1625
1125	3625	1875
1125	3875	1625
1125	3875	1875
1375	3625	1625
1375	3625	1875
1375	3875	1625
1375	3875	1875
1125	3625	2125
1125	3625	2375
1125	3875	2125
1125	3875	2375
1375	3625	2125
1375	3625	2375
1375	3875	2125
1375	3875	2375
1125	3625	2625
1125	3625	2875
1125	3875	2625
1125	3875	2875
1375	3625	2625
1375	3625	2875
1375	3875	2625
1375	3875	2875
1125	3625	3125
1125	3625	3375
1125	3875	3125
1125	3875	3375
1375	3625	3125
1375	3625	3375
1375	3875	3125
1375	3875	3375
1250	4250	250
1125	4125	625
1125	4125	875
1125	4375	625
1125	4375	875
1375	4125	625
1375	4125	875
1375	4375	625
1375	4375	875
1250	4250	1250
1125	4125	1625
1125	4125	1875
1125	4375	1625
1125	4375	1875
1375	4125	1625
1375	4125	1875
1375	4375	1625
1375	4375	1875
1125	4125	2125
1125	4125	2375
1125	4375	2125
1125	4375	2375
1375	4125	2125
1375	4125	2375
1375	4375	2125
1375	4375	2375
1125	4125	2625
1125	4125	2875
1125	4375	2625
1125	4375	2875
1375	4125	2625
1375	4125	2875
1375	4375	2625
1375	4375	2875
1250	4250	3250
1250	4750	250
1125	4625	625
1125	4625	875
1125	4875	625
1125	4875	875
1375	4625	625
1375	4625	875
1375	4875	625
1375	4875	875
1250	4750	1250
1250	4750	1750
1250	4750	2250
1250	4750	2750
1250	4750	3250
1250	5250	250
1250	5250	750
1250	5250	1250
1250	5250	1750
1250	5250	2250
1250	5250	2750
1250	5250	3250
1250	5750	250
1250	5750	750
1250	5750	1250
1250	5750	1750
1250	5750	2250
1250	5750	2750
1250	5750	3250
1750	250	250
1750	250	750
1750	250	1250
1750	250	1750
1750	250	2250
1750	250	2750
1750	250	3250
1750	750	250
1750	750	750
1750	750	1250
1750	750	1750
1750	750	2250
1750	750	2750
1750	750	3250
1750	1250	250
1750	1250	750
1750	1250	1250
1750	1250	1750
1750	1250	2250
1750	1250	2750
1750	1250	3250
1750	1750	250
1750	1750	750
1625	1625	1125
1625	1625	1375
1625	1875	1125
1625	1875	1375
1875	1625	1125
1875	1625	1375
1875	1875	1125
1875	1875	1375
1625	1625	1625
1625	1625	1875
1625	1875	1625
1625	1875	1875
1875	1625	1625
1875	1625	1875
1875	1875	1625
1875	1875	1875
1625	1625	2125
1625	1625	2375
1625	1875	2125
1625	1875	2375
1875	1625	2125
1875	1625	2375
1875	1875	2125
1875	1875	2375
1750	1750	2750
1750	1750	3250
1750	2250	250
1625	2125	625
1625	2125	875
1625	2375	625
1625	2375	875
1875	2125	625
1875	2125	875
1875	2375	625
1875	2375	875
1625	2125	1125
1625	2125	1375
1625	2375	1125
1625	2375	1375
1875	2125	1125
1875	2125	1375
1875	2375	1125
1875	2375	1375
1625	2125	1625
1625	2125	1875
1625	2375	1625
1625	2375	1875
1875	2125	1625
1875	2125	1875
1875	2375	1625
1875	2375	1875
1625	2125	2125
1625	2125	2375
1625	2375	2125
1625	2375	2375
1875	2125	2125
1875	2125	2375
1875	2375	2125
1875	2375	2375
1625	2125	2625
1625	2125	2875
1625	2375	2625
1625	2375	2875
1875	2125	2625
1875	2125	2875
1875	2375	2625
1875	2375	2875
1625	2125	3125
1625	2125	3375
1625	2375	3125
1625	2375	3375
1875	2125	3125
1875	2125	3375
1875	2375	3125
1875	2375	3375
1750	2750	250
1625	2625	625
1625	2625	875
1625	2875	625
1625	2875	875
1875	2625	625
1875	2625	875
1875	2875	625
1875	2875	875
1625	2625	1125
1625	2625	1375
1625	2875	1125
1625	2875	1375
1875	2625	1125
1875	2625	1375
1875	2875	1125
1875	2875	1375
1625	2625	1625
1625	2625	1875
1625	2875	1625
1625	2875	1875
1875	2625	1625
1875	2625	1875
1875	2875	1625
1875	2875	1875
1625	2625	2125
1625	2625	2375
1625	2875	2125
1625	2875	2375
1875	2625	2125
1875	2625	2375
1875	2875	2125
1875	2875	2375
1625	2625	2625
1625	2625	2875
1625	2875	2625
1625	2875	2875
1875	2625	2625
1875	2625	2875
1875	2875	2625
1875	2875	2875
1625	2625	3125
1625	2625	3375
1625	2875	3125
1625	2875	3375
1875	2625	3125
1875	2625	3375
1875	2875	3125
1875	2875	3375
1750	3250	250
1625	3125	625
1625	3125	875
1625	3375	625
1625	3375	875
1875	3125	625
1875	3125	875
1875	3375	625
1812.5	3312.5	812.5
1812.5	3312.5	937.5
1812.5	3437.5	812.5
1812.5	3437.5	937.5
1937.5	3312.5	812.5
1937.5	3312.5	937.5
1937.5	3437.5	812.5
1937.5	3437.5	937.5
1625	3125	1125
1625	3125	1375
1625	3375	1125
1625	3375	1375
1812.5	3062.5	1062.5
1812.5	3062.5	1187.5
1812.5	3187.5	1062.5
1812.5	3187.5	1187.5
1937.5	3062.5	1062.5
1937.5	3062.5	1187.5
1937.5	3187.5	1062.5
1937.5	3187.5	1187.5
1875	3125	1375
1812.5	3312.5	1062.5
1812.5	3312.5	1187.5
1812.5	3437.5	1062.5
1812.5	3437.5	1187.5
1937.5	3312.5	1062.5
1937.5	3312.5	1187.5
1937.5	3437.5	1062.5
1937.5	3437.5	1187.5
1812.5	3312.5	1312.5
1812.5	3312.5	1437.5
1812.5	3437.5	1312.5
1812.5	3437.5	1437.5
1937.5	3312.5	1312.5
1937.5	3312.5	1437.5
1937.5	3437.5	1312.5
1937.5	3437.5	1437.5
1625	3125	1625
1625	3125	1875
1625	3375	1625
1625	3375	1875
1875	3125	1625
1875	3125	1875
1875	3375	1625
1875	3375	1875
1625	3125	2125
1625	3125	2375
1625	3375	2125
1625	3375	2375
1875	3125	2125
1875	3125	2375
1875	3375	2125
1875	3375	2375
1625	3125	2625
1625	3125	2875
1625	3375	2625
1625	3375	2875
1875	3125	2625
1875	3125	2875
1875	3375	2625
1875	3375	2875
1625	3125	3125
1625	3125	3375
1625	3375	3125
1625	3375	3375
1875	3125	3125
1875	3125	3375
1875	3375	3125
1875	3375	3375
1750	3750	250
1625	3625	625
[...]
CELL_DATA	5796
SCALARS model double 1
LOOKUP_TABLE table0
-0.597228
2.58689
-0.291753
-3.37128
-7.40753
-12.5205
-16.1534
-0.780443
5.619
-1.33768
-6.27744
-9.48985
-13.3228
-15.7922
-0.788324
-0.620283
-5.27649
-9.91032
-11.6033
-13.6644
-14.4193
-1.01965
7.35431
-4.58837
-11.9271
-12.7076
-13.2105
-12.2619
-0.30453
1.27618
-7.8216
-14.3048
-13.4075
-12.4118
-10.023
-0.345042
2.70552
-12.1645
-17.598
-14.4289
-12.0729
-8.62079
-1.2712
4.98826
-15.4395
-20.6734
-16.275
-13.0781
-9.17875
-2.53108
9.39807
1.80778
14.7096
5.1974
18.015
5.84521
20.4571
8.63095
-14.4492
-18.8027
-13.8307
-18.2998
-12.2996
-17.8224
-11.736
-17.2805
-22.0588
-18.1169
-15.1138
-11.6563
-2.13457
15.1049
6.36312
8.29199
5.64596
18.9477
8.8157
11.1447
7.08175
-12.9128
-17.2496
-11.6763
-15.4986
-11.1658
-16.3028
-10.6004
-14.9103
-20.9732
-18.9665
-17.3586
-15.4759
-0.587319
5.45703
-6.60547
-17.1658
-18.4396
-19.0472
-19.0572
0.26369
1.70699
-1.93163
-12.8002
-16.484
-19.3014
-21.4606
-0.427647
8.4749
-0.257782
-11.5953
-15.5494
-18.8793
-21.7014
-0.0167973
-0.0928189
0.570749
-3.6012
-7.69315
-12.2501
-15.1013
-0.965701
6.70624
-0.882564
-6.11806
-8.96295
-12.3018
-14.0204
-0.983217
5.25144
-3.42514
-8.56063
-9.56023
-11.2325
-11.3037
-1.71586
8.30204
-5.6501
-10.0188
-8.85997
-8.83548
-7.25192
-0.498762
-1.16514
-10.5985
-11.3551
-7.47674
-5.69977
-2.7264
-0.856487
-4.23696
-15.6659
-12.973
-5.92879
-2.88827
1.07218
-1.06022
-1.60485
-17.1642
-14.7625
-6.59608
-2.99467
1.31584
-2.48705
15.9153
3.35016
13.0523
5.37599
2.80684
-5.79295
1.72399
-3.40389
-14.8887
-16.3754
-9.11928
-5.68295
-1.67926
-2.21974
10.2768
5.32849
6.85255
4.80255
0.944325
-2.40365
0.249642
-1.05538
-14.019
-17.5272
-12.1882
-9.81187
-8.01846
-1.13955
6.6388
-9.70861
-16.9081
-15.3608
-14.5994
-13.6902
-0.454345
2.78654
-6.46873
-14.4638
-15.6758
-16.8807
-17.9943
0.0205072
2.71621
-5.64977
-13.3082
-15.0138
-16.8427
-18.7018
0.434627
0.490777
1.81413
-4.37458
-8.06294
-11.4095
-12.8868
0.45195
-4.54533
-3.99797
-6.49809
-7.78349
-9.97281
-10.4469
-0.197733
-2.66994
-6.16763
-6.67876
-5.22862
-6.00961
-5.06528
-0.214954
-4.67437
-9.04238
-4.50669
0.268993
0.531235
2.79397
-1.36669
-7.66389
-9.67817
-8.55419
-2.93969
-6.6638
-0.580535
-0.661591
5.85779
2.52198
9.5495
7.38914
8.81476
11.7449
-1.12473
-10.5392
-17.8402
-7.64871
-18.7683
-7.93483
-11.4474
0.0423409
-11.4675
0.787919
-5.9795
0.405307
-5.26704
1.43261
5.43483
12.8836
7.65309
15.3716
5.90874
5.97399
8.0834
8.1998
18.666
17.6545
21.6586
20.92
8.20851
8.56854
9.82106
10.1576
17.9884
17.9596
20.2235
20.1013
11.8337
12.1366
13.1506
13.4185
19.6726
19.6809
21.3767
21.3153
-2.21368
-17.343
-19.8745
-8.50753
-20.4425
-9.44985
-12.1252
0.881952
-13.4854
-0.15679
-5.44873
1.27602
-6.16335
0.251501
8.60055
16.309
7.98014
15.3198
8.49505
8.64966
7.66534
7.9353
22.9107
22.4162
22.1591
21.7991
10.2972
10.7183
9.66358
10.137
21.273
21.2239
20.6339
20.6695
13.7181
14.0442
13.1705
13.5243
22.3334
22.3292
21.7994
21.8151
-3.52283
-10.5289
-14.5804
-7.5543
-12.6121
-20.7682
-19.1017
-17.5297
-18.8775
-19.816
-10.4981
-19.5446
-13.4482
-15.153
-2.99299
-16.8637
-8.04698
-7.43979
-1.71481
-9.8751
-5.35927
5.48243
12.1799
1.19232
6.99559
5.70902
6.10291
2.52454
3.10046
19.3682
19.0401
14.8009
14.6765
7.81163
8.21762
5.02681
5.56485
18.1692
18.1995
14.4737
14.7191
11.2734
11.5012
9.76421
10.1546
19.5627
19.4533
17.0918
17.2362
-1.94612
-5.25697
-10.8788
-5.40221
-8.82475
-14.0238
-18.5383
-12.0709
-17.0687
-20.0669
-11.741
-8.57186
-13.6262
-11.8776
-3.59892
1.02766
-8.04854
-4.76399
-0.481092
0.0616446
-3.60229
-3.05325
9.44669
9.50572
3.97073
4.29745
1.61898
1.89332
-0.971497
-0.600027
9.59596
9.59262
5.44458
5.68985
6.23288
-1.0039
-2.70381
-4.50096
5.36935
1.76431
-9.39389
-13.3111
-3.53044
-7.08184
-18.3379
-15.5312
-8.51253
-5.66456
-2.74426
-0.0992075
5.82794
-12.0809
-17.1371
-14.1074
-12.2787
-11.4331
-0.489056
3.386
-11.1087
-16.2581
-14.2764
-13.0989
-13.1294
1.39267
-6.26491
-6.349
-8.49947
-9.06366
-10.1538
-9.95976
0.198694
1.39352
-5.33071
-6.88441
-6.05796
-6.52581
-5.66857
0.0335564
1.29385
-4.99565
-2.08622
1.5815
1.60804
3.42685
0.119258
-5.56775
-10.7397
-3.03594
-9.08184
-0.639447
-5.87917
1.72187
-2.57735
6.22275
-2.38799
2.42378
3.37232
9.25551
4.77087
10.2574
12.2079
18.6096
6.5715
5.64086
13.6333
11.7794
14.1623
12.2098
22.9038
20.4908
14.3909
16.5274
-0.83344
-11.5495
-2.83198
-11.0918
-1.25237
-6.77372
3.04711
-4.27593
7.04441
-7.1007
2.11494
-2.92514
7.7839
3.1189
13.3539
11.1421
22.989
9.05663
16.0005
15.277
22.7686
21.3426
28.3698
31.7207
38.837
20.1503
17.0284
27.7916
24.2056
32.5379
29.262
42.7415
38.6953
18.7983
18.8956
24.9865
24.7184
28.6623
28.0461
36.2032
34.5455
21.2722
21.5353
26.1026
26.2614
28.8429
28.8897
34.531
34.4181
-1.39713
-11.2356
-0.322344
-13.3086
0.337704
-2.76913
12.1153
-2.69025
17.3456
0.567913
13.0886
3.72398
17.5371
20.2665
33.6672
29.6508
44.2423
21.3567
29.0644
26.3874
34.0486
42.323
49.0442
51.6585
57.6188
34.0637
31.3215
38.9287
36.4126
52.1537
47.5968
59.7595
54.6144
30.0612
29.6416
33.7004
33.0035
43.1792
40.3514
48.5723
44.9601
30.4432
30.9206
33.1599
33.5759
40.134
40.3028
43.9133
43.9504
-4.79106
-16.632
-1.2901
-20.9461
-4.64498
-2.33843
20.8477
-4.30244
9.77498
13.7316
8.06404
11.9954
26.575
32.606
25.175
31.2588
5.79967
20.0942
4.68591
20.6201
23.2504
24.5337
24.9258
26.5549
41.3998
43.9246
43.8353
46.7332
51.1558
24.8392
26.8084
23.6497
25.8522
44.7215
47.9858
43.8998
47.351
41.4006
42.7619
40.3284
41.7721
60.6422
62.4613
59.6697
61.5816
29.4101
36.7068
29.7034
36.2057
58.164
62.9451
61.2832
63.5813
41.529
39.1381
41.1593
38.8896
64.3161
58.7151
64.7307
59.0288
35.5361
34.8874
35.0244
34.6499
51.4325
47.8758
51.1228
48.269
34.6435
35.1081
34.222
34.6896
46.0194
46.073
45.7412
45.757
-6.42313
-23.2172
-10.9468
-24.3808
-16.3445
-9.58842
4.98938
8.77842
0.974192
4.47466
22.0555
28.0442
17.2702
22.9676
-18.2994
-2.96687
0.115406
-7.38477
-5.21865
11.2924
16.4321
4.26133
8.28505
0.672034
16.5386
-5.47059
7.35813
21.2503
23.5995
17.4047
19.769
41.237
44.761
36.6879
40.1737
38.0717
39.7481
35.3559
37.4947
56.9064
58.9882
52.0416
54.4294
13.0656
15.3068
7.40657
9.49621
30.6746
33.9543
23.3665
26.4987
34.3296
26.1786
32.149
18.8213
24.8981
57.4378
58.7806
45.13
48.9462
37.5956
35.5783
31.2512
29.8357
60.5269
55.3099
52.1069
48.072
32.0868
32.0602
27.1946
27.5833
47.5653
45.7207
41.1965
40.3273
31.7477
32.1179
28.1019
28.5939
42.9293
42.8303
38.2671
38.3139
-5.22901
-23.9312
-21.855
-21.7092
-23.9237
-26.3939
-13.526
-30.8534
-23.688
-12.8152
-1.20041
-22.3811
-11.6956
2.18937
4.11571
-3.41224
-1.96933
15.6608
18.5393
7.64343
9.95782
19.4777
-13.647
0.914588
9.91123
15.8041
0.781264
6.55713
30.742
35.7723
14.9781
21.5595
23.0952
22.4487
14.2265
14.2391
40.6646
38.198
27.8287
26.7665
20.7627
21.1424
14.1985
14.8353
32.7696
32.3301
23.6966
23.8055
22.3137
22.4533
16.3667
16.7665
31.2165
30.9749
24.0221
24.1377
-0.40359
-18.4296
-22.4677
-12.9472
-16.8095
-29.4812
-28.8311
-23.2984
-25.4698
-24.2966
-17.0571
-24.3593
-21.2652
-22.2581
-12.3614
-25.7763
-20.3577
-7.26842
-1.59476
-13.2641
-9.27794
1.56439
8.27895
-8.07432
-3.10562
5.43539
5.46666
-1.66122
-1.22673
15.3454
15.0587
4.91761
5.23774
7.02933
7.21412
2.08161
2.45232
14.4524
14.2799
7.8653
8.09858
9.17939
9.15426
4.93131
5.15635
15.0976
14.7753
9.80202
9.85058
-0.150258
-6.89609
-7.89104
1.8143
2.69155
-14.5286
-16.3483
-4.04116
-4.7446
-21.5781
-19.2885
-11.0634
-6.41671
-3.98931
-0.0930131
5.00852
-16.8616
-19.1873
-13.0325
-8.26277
-6.3511
0.601443
0.69871
-11.2763
-12.1469
-9.687
-8.45487
-6.97207
0.37773
3.87504
-5.86926
-6.50329
-3.96776
-2.53131
-0.809753
0.300838
-0.917603
-2.86228
-3.58315
0.111299
3.17903
7.9345
-0.921153
3.28915
6.72083
11.9843
8.86777
10.0689
12.1564
0.482489
-1.35275
1.65079
-2.77821
4.63668
-5.00526
2.9461
-0.257684
9.60747
-1.72932
5.79221
5.46191
14.5974
2.48899
10.9135
13.4497
23.15
11.242
17.0871
21.8999
28.4122
17.1477
23.3243
31.137
37.5358
20.7453
17.3241
32.354
28.9366
27.5552
23.1803
41.2175
36.9103
18.8954
18.9453
28.2928
27.6856
24.3496
24.0891
34.8332
33.3181
20.9789
21.2071
28.3906
28.4216
25.2532
25.3556
33.2899
33.1769
2.01291
-0.442897
11.29
6.18318
21.2061
7.68381
21.6722
19.3658
38.8086
16.0605
26.7953
30.3379
42.3625
29.8514
40.5869
51.6825
62.8689
35.2686
41.8064
50.8315
56.6165
48.983
54.6221
70.1443
73.9032
45.1445
40.9497
58.6613
53.1846
56.8386
51.4996
73.6542
66.3397
38.1214
36.5729
47.9443
44.258
46.6786
43.2177
58.8353
52.5758
36.6974
37.1302
43.7058
44.0122
42.7248
43.0678
50.7683
51.0962
-0.628007
8.40883
-1.10687
11.7124
1.95874
18.2444
1.79816
27.3222
13.2264
33.9868
21.6843
30.5836
34.2326
36.531
41.2548
47.771
53.5228
55.4887
62.3186
34.8197
42.2675
45.8346
53.7735
59.1767
55.4357
60.6333
68.5269
75.4909
31.7335
41.2414
42.1846
53.6134
48.4784
61.1354
60.9721
75.4948
64.912
72.1439
76.1702
84.5132
82.7604
91.2042
97.6337
106.908
47.6904
60.2025
46.7851
48.0947
54.6907
56.9372
66.1973
68.7559
75.3495
78.6806
61.199
61.4492
68.7495
69.332
79.1931
80.1723
87.9319
89.2683
58.6708
59.3419
72.0988
73.9918
73.2558
74.8763
88.0253
90.7682
88.9242
84.7217
87.8831
96.6721
100.489
103.109
106.721
117.803
121.86
95.6413
97.0429
106.828
108.676
111.989
113.961
124.826
127.24
67.2189
71.5558
82.1422
84.6768
92.9795
93.8209
114.58
111.881
71.6468
64.5942
82.5533
73.8346
90.2233
80.2782
104.552
91.7824
57.0687
51.1689
64.215
56.9528
70.0112
61.0842
78.8035
68.1799
50.2198
50.8092
54.7688
55.2458
58.0206
59.0128
62.7199
63.6987
-0.0612098
15.8546
-1.37258
20.3819
4.91758
18.2009
37.969
24.3271
46.0394
31.421
56.5108
39.4152
66.9239
8.18258
29.2605
51.4418
35.3483
57.3496
47.186
76.1842
53.0068
81.8105
12.7138
19.168
15.9325
23.1021
31.8818
41.8402
36.886
47.6424
40.4726
46.0043
44.7563
51.1626
62.7538
70.4019
69.2066
77.4637
16.9074
24.2619
16.9145
24.362
40.6205
51.7815
42.2984
53.5307
47.4237
54.9139
47.2831
55.079
73.6762
82.347
75.0977
83.8246
52.2953
65.2817
61.2952
75.2606
74.7173
90.6398
88.1029
104.847
87.0794
95.9826
96.7544
105.845
112.379
121.833
125.856
134.943
68.7327
83.0116
73.1849
87.381
99.7416
116.646
107.925
124.425
104.051
112.984
107.678
116.236
136.595
144.926
143.06
150.421
61.0844
64.4112
65.471
69.2463
83.5859
87.4791
90.0439
94.1484
73.931
74.5639
78.446
79.258
95.2051
96.6207
100.877
102.232
67.776
71.7475
67.7234
71.7407
94.0941
98.1486
95.1975
99.055
81.2685
82.8243
81.0924
82.8155
104.3
105.645
104.798
105.992
107.473
111.566
116.355
120.39
131.346
135.486
142.812
146.718
116.209
118.105
123.518
125.135
136.167
138.554
145.219
147.121
122.49
126.175
125.133
128.237
151.211
154.505
155.716
157.873
128.188
129.412
129.607
130.28
151.41
152.58
154.003
154.169
92.8392
93.5886
84.2691
86.0866
84.2781
85.9346
102.219
105.913
102.584
105.91
95.9923
131.433
124.899
140.017
129.672
89.6009
79.5391
91.1937
80.5735
114.301
99.1726
117.313
101.015
68.1651
60.875
68.1242
61.9196
83.8179
72.9259
84.0867
74.2869
57.4101
57.8667
57.3177
57.704
65.9294
66.9406
65.911
66.8334
-2.20284
17.11
-5.15149
1.14825
9.24126
62.671
6.30992
46.7097
14.5944
21.9717
9.89059
17.1314
40.8735
51.9477
35.9514
46.7161
44.4151
52.175
38.8557
46.3515
72.8923
81.4541
66.8399
75.097
3.58801
10.8701
-4.38085
2.20028
27.7418
38.1618
17.2739
26.7351
30.9145
37.9156
20.9772
27.1248
57.1507
65.0017
44.492
51.6962
73.643
87.3387
69.1771
82.1803
111.106
126.683
107.922
122.27
106.701
114.774
100.575
108.181
143.893
150.284
138.181
143.814
59.6376
71.8864
46.2589
57.2399
97.8682
110.862
81.365
93.0112
89.3562
96.5972
73.8315
80.6988
125.786
130.991
107.386
112.508
65.0875
69.0772
59.8149
63.7487
92.9334
96.5626
87.1069
90.5902
78.2748
80.0348
72.7668
74.4147
102.15
103.16
96.268
97.1255
52.2179
56.0724
42.7833
46.5854
77.9517
81.4346
66.0357
69.63
64.4475
65.1712
54.7306
55.4193
87.3869
88.0455
76.2596
77.1151
123.637
126.115
117.523
119.634
155.503
156.265
149.477
149.401
127.353
127.383
121.196
120.896
152.46
151.467
146.214
144.557
106.911
109.019
92.4134
94.8273
137.642
137.458
120.712
121.029
111.344
111.025
98.4125
98.4395
135.426
133.641
120.719
119.346
83.0235
84.4955
80.3983
82.6019
102.791
104.976
98.1792
100.58
90.6733
79.2016
77.942
123.818
126.168
117.724
119.311
140.81
144.631
135.375
138.083
124.048
109.426
108.983
98.8953
98.0229
128.962
128.704
117.604
116.816
108.322
86.5003
76.4799
75.8662
67.678
112.336
96.6199
99.6219
86.3491
63.9285
59.4518
56.0594
53.402
79.3169
71.5891
69.9782
64.7196
54.3144
54.5933
49.1352
49.4963
62.3623
63.0792
57.3097
57.9451
-5.97736
-15.0896
-4.00412
-23.7197
-0.115046
10.8499
-4.0098
-16.4501
-11.0685
-5.54041
-17.4846
-14.3902
6.13781
14.119
-4.48004
0.781722
9.38852
14.3018
-2.15212
1.33282
29.9877
36.267
15.2193
20.2255
-25.5759
-10.3298
-8.29509
-17.8166
-17.4514
2.2678
5.59234
-8.4541
-6.97699
29.8609
39.603
13.2507
20.6717
60.0694
70.3788
36.7645
45.4338
55.4309
61.8385
36.1631
41.7943
84.7016
89.919
60.1416
65.3179
-2.99396
1.77127
-15.5598
-13.8387
14.4261
21.0701
-3.37528
0.360335
18.3075
22.7281
3.83573
6.58517
36.5101
41.1872
16.3289
19.7501
32.5056
36.185
22.5004
25.7918
52.4192
56.0849
38.0804
41.5094
45.243
46.2737
35.4257
36.8956
63.9167
65.1516
50.7414
52.438
6.72629
21.3348
75.152
77.9619
56.1962
59.142
100.028
101.19
77.1907
79.161
83.3131
83.9063
66.734
67.8304
103.146
102.551
83.8374
84.0983
36.0427
38.3196
17.7724
19.8413
54.055
56.4791
32.8116
35.4669
48.9879
49.8746
33.8146
35.0388
64.185
64.9984
46.1562
47.5348
59.6777
59.8163
33.8237
39.4203
87.4692
87.2048
75.1223
76.1406
104.185
104.02
89.4303
90.6356
85.0461
53.223
58.2495
60.804
55.2604
43.5289
40.68
81.0082
71.5318
59.3376
54.021
45.6363
44.3418
34.221
34.0076
57.4812
54.4667
43.6815
42.4337
41.5298
41.6075
33.0949
33.4906
49.7704
49.5834
40.1586
40.221
1.35225
-22.0654
3.06914
-16.1074
-2.4992
-25.5687
-1.70271
-21.0031
-33.5214
-28.1191
-30.1455
-29.783
-28.3517
-16.3493
-31.6523
-28.7704
-12.369
-1.75464
-25.0204
-16.6182
4.70394
6.66856
-6.27431
-4.96506
15.4031
17.8861
1.69231
3.46549
13.2873
-22.2615
-10.1882
12.8803
19.7052
-3.15248
2.18582
25.8798
32.1142
4.0837
9.23253
26.2738
25.4506
10.6927
10.9797
37.4593
35.5589
17.4638
17.4102
23.048
23.0087
14.7715
15.3625
30.2438
29.6532
19.6225
19.9831
23.2215
23.2373
16.8696
17.3017
29.0295
28.7016
21.4243
21.6527
0.131447
-18.3825
-21.4206
-3.33851
-9.59919
-17.9462
-22.862
1.31017
-10.622
-27.0935
-23.2543
-24.7588
-25.3213
-27.7736
-22.9503
-26.5006
-27.3734
-14.7844
-12.6632
-21.0888
-20.9958
-12.1258
-10.0766
-20.3883
-20.2981
-2.54581
-2.59617
-10.0299
-9.84884
1.14194
0.999873
-7.99035
-7.81869
0.875953
3.68888
-0.522855
-0.726707
-2.51421
-3.94005
-1.99342
4.88625
-3.86742
0.800085
-3.94932
-21.8586
-24.0823
-21.3098
-23.5198
-24.2817
-27.2303
-24.0517
-26.8946
-22.1608
-11.8965
-3.16856
0.206449
1.21209
0.205864
-13.0918
-12.329
-8.63005
-6.428
-4.72251
0.655153
3.35994
-7.13587
-5.32212
-1.76239
1.03724
2.45669
3.88873
-10.2178
-8.47409
-1.65087
-4.04591
4.19733
-7.72135
-1.47049
-3.54565
4.51888
0.479821
5.01313
9.36934
15.0394
1.52852
6.27475
10.8629
16.776
14.0628
9.67774
9.85851
17.81
17.7122
10.9367
11.092
19.2845
19.1489
17.3533
3.19478
-9.40586
1.08558
2.11527
13.0791
-11.4461
0.598608
1.80425
14.5725
4.73626
14.0821
19.6968
29.7748
5.93033
15.5825
23.0312
33.1606
21.6397
28.0792
38.3873
44.6192
24.0459
30.6694
42.3048
48.4785
32.0637
27.1841
47.8963
43.0262
34.8508
29.9987
51.5897
46.6276
28.2262
27.8818
39.9867
37.5193
30.3302
29.847
42.9157
39.9756
28.8033
29.0756
37.5828
37.6932
30.6723
30.8703
39.7732
39.8145
3.22151
14.6538
1.47403
19.4874
3.03092
18.1472
4.86893
27.1675
16.4129
31.4009
33.3632
56.1182
20.5741
37.0378
43.1629
51.0986
54.5517
66.8665
72.4531
53.3327
57.3447
69.3604
75.431
41.7433
51.8556
70.8141
80.091
48.9497
57.9411
66.573
67.843
84.4835
86.9961
69.0773
70.9201
87.1819
90.2155
89.5561
60.0473
64.763
86.0688
87.807
66.1573
70.3564
95.0424
95.5801
65.888
59.6067
85.4371
76.4989
70.8677
64.2116
91.9779
82.2262
53.4188
48.1462
67.2781
58.9072
57.2044
51.1272
71.9523
62.7376
47.4813
48.1043
55.7469
56.7363
49.9217
50.5319
58.0979
59.1644
3.2801
28.8046
6.93813
22.5767
46.0958
32.8644
59.8143
30.7168
57.5784
42.1729
72.7425
7.42693
39.9482
10.7323
36.6239
65.6637
49.3639
82.6432
40.0111
70.0762
52.9843
87.6384
35.9848
45.8436
48.7746
61.2844
45.3792
56.8195
59.2526
73.4443
66.2195
72.4009
82.3674
90.371
76.4993
83.4377
94.4878
103.147
63.0787
78.0222
79.3811
96.3019
76.0571
92.7958
95.5737
114.335
99.8051
109.008
118.216
127.905
114.49
124.122
135.973
145.729
51.7136
63.7823
67.2653
82.3818
55.451
67.8021
71.6528
87.1851
83.7968
91.3529
103.327
112.387
87.3111
95.2267
107.788
117.061
85.9236
103.75
107.692
127.649
91.1098
109.536
113.92
134.606
125.243
135.051
148.959
158.636
130.733
140.633
155.637
165.268
84.994
87.1097
102.393
105.649
95.6239
98.2193
114.529
118.169
113.331
119.972
123.89
137.26
141.51
134.069
138.327
153.476
158.135
125.556
128.83
140.247
144.025
137.293
143.019
151.568
157.79
103.065
106.502
123.181
127.318
106.646
110.545
127.519
131.968
126.563
144.131
148.926
165.002
170.407
149.25
154.317
170.868
176.626
165.231
114.603
111.984
142.204
134.357
126.998
122.26
158.347
147.208
104.992
92.5033
122.228
105.9
113.268
99.4015
132.219
113.895
80.034
68.9023
90.1093
77.1076
85.5421
73.5962
96.3317
82.4196
72.3227
0.998623
22.1971
2.67014
28.2306
3.35748
28.9471
5.05663
35.7933
44.4472
74.3977
56.4581
89.5631
56.6818
90.9962
72.2374
110.534
3.883
33.505
4.77201
38.978
6.90436
43.3224
8.21706
50.4447
67.8697
103.488
77.184
113.821
87.3153
129.146
100.401
144.742
4.64796
33.1308
6.96846
41.687
5.28297
35.0282
8.09586
44.5514
65.7681
103.445
83.9185
126.24
70.1245
109.677
89.585
134.256
9.04627
50.6179
10.9941
59.1866
10.3911
54.3339
12.3802
63.9673
101.486
148.277
117.644
167.694
108.772
158.389
126.871
180.219
97.337
115.478
115.279
134.01
117.286
137.15
139.54
159.699
136.801
146.178
154.15
162.594
157.916
166.932
178.824
186.35
131.426
149.986
143.794
161.508
160.073
179.657
176.763
194.934
168.52
175.574
178.072
183.517
196.6
202.186
209.18
212.481
132.111
153.138
157.534
178.681
139.714
161.476
166.865
188.643
173.395
182.008
196.962
203.747
181.395
189.806
206.42
212.792
181.306
201.546
201.294
219.694
192.553
213.238
214.598
233.161
217.295
221.955
232.233
234.108
228.228
232.275
244.574
245.519
153.364
157.736
167.185
171.504
171.615
176.827
187.215
193.254
153.602
157.381
164.172
167.337
167.286
173.8
178.162
184.136
177.662
181.415
184.088
185.985
198.771
205.568
206.375
210.614
171.96
174.152
175.865
176.515
187.731
192.807
192.616
195.642
184.466
191.207
200.83
210.584
190.812
198.199
206.893
217.697
198.702
238.316
217.499
164.29
151.066
175.258
158.104
183.637
166.163
196.118
174.631
134.343
114.74
138.685
117.317
145.76
123.598
150.945
126.638
95.9986
82.4181
96.5681
83.8735
102.734
88.0302
103.506
89.487
78.1525
5.37438
42.0854
6.15166
44.1908
9.35733
55.9731
10.8079
59.7556
83.3641
118.031
86.3915
118.421
110.209
154.667
115.736
158.618
6.35225
41.9315
6.19698
36.0741
11.4336
59.0879
10.9808
52.3118
82.371
110.779
73.033
97.888
113.43
153.522
101.431
137.092
12.5461
66.1292
13.9938
71.1665
14.1252
71.9017
16.0141
77.9668
129.851
181.535
137.584
188.781
141.066
196.499
150.559
205.92
15.1008
72.0441
15.1343
66.753
17.4003
79.6813
17.5105
74.2189
137.142
186.077
126.011
170.741
151.008
204.496
138.917
187.822
150.122
166.413
148.896
163.278
186.645
202.719
187.864
201.245
181.023
184.938
176.105
178.864
214.353
215.485
210.473
209.967
138.979
151.398
119.875
130.694
178.638
189.366
157.387
166.313
162.96
165.117
141.948
144.252
196.935
195.577
173.77
172.772
213.975
229.68
217.243
229.649
229.127
244.623
233.831
245.627
239.145
238.202
236.211
233.149
252.61
250.412
250.345
245.735
208.64
217.907
186.288
193.372
225.862
234.179
202.919
208.844
222.573
218.411
197.929
194.228
236.781
230.895
211.398
206.045
185.959
184.834
180.45
177.673
212.914
209.632
207.865
202.093
175.596
174.155
169.51
166.817
195.162
193.648
189.334
185.82
167.669
164.57
148.535
146.145
194.256
188.042
173.235
167.963
157.967
154.676
141.697
138.713
177.203
172.597