# vtk DataFile Version 3.0
Gravity effects
ASCII
DATASET UNSTRUCTURED_GRID

POINTS	11374	double
5.0623e+06	403746	-318
5.0623e+06	403748	-318
5.0623e+06	403750	-318
5.0623e+06	403752	-318
5.0623e+06	403754	-318
5.0623e+06	403756	-318
5.0623e+06	403758	-318
5.0623e+06	403760	-318
5.0623e+06	403762	-318
5.0623e+06	403764	-318
5.0623e+06	403766	-318
5.0623e+06	403768	-318
5.0623e+06	403770	-318
5.0623e+06	403772	-318
5.0623e+06	403774	-318
5.0623e+06	403776	-318
5.0623e+06	403778	-318
5.0623e+06	403780	-318
5.0623e+06	403782	-318
5.0623e+06	403784	-318
5.0623e+06	403786	-318
5.0623e+06	403788	-318
5.0623e+06	403790	-318
5.0623e+06	403792	-318
5.0623e+06	403794	-318
5.0623e+06	403796	-318
5.0623e+06	403798	-318
5.0623e+06	403800	-318
5.0623e+06	403802	-318
5.0623e+06	403804	-318
5.0623e+06	403806	-318
5.0623e+06	403808	-318
5.0623e+06	403810	-318
5.0623e+06	403812	-318
5.0623e+06	403814	-318
5.0623e+06	403816	-318
5.0623e+06	403818	-318
5.0623e+06	403820	-318
5.0623e+06	403822	-318
5.0623e+06	403824	-318
5.0623e+06	403826	-318
5.0623e+06	403828	-318
5.0623e+06	403830	-318
5.0623e+06	403832	-318
5.0623e+06	403834	-318
5.0623e+06	403836	-318
5.0623e+06	403838	-318
5.0623e+06	403840	-318
5.0623e+06	403842	-318
5.0623e+06	403844	-318
5.0623e+06	403846	-318
5.0623e+06	403848	-318
5.0623e+06	403850	-318
5.0623e+06	403852	-318
5.0623e+06	403854	-318
5.0623e+06	403856	-318
5.0623e+06	403858	-318
5.0623e+06	403860	-318
5.0623e+06	403862	-318
5.0623e+06	403864	-318
5.0623e+06	403866	-318
5.0623e+06	403868	-318
5.0623e+06	403870	-318
5.0623e+06	403872	-318
5.0623e+06	403874	-318
5.0623e+06	403876	-318
5.0623e+06	403878	-318
5.0623e+06	403880	-318
5.0623e+06	403882	-318
5.0623e+06	403884	-318
5.0623e+06	403886	-318
5.0623e+06	403888	-318
5.0623e+06	403890	-318
5.0623e+06	403892	-318
5.0623e+06	403894	-318
5.0623e+06	403896	-318
5.0623e+06	403898	-318
5.0623e+06	403900	-318
5.0623e+06	403902	-318
5.0623e+06	403904	-318
5.0623e+06	403906	-318
5.0623e+06	403908	-318
5.0623e+06	403910	-318
5.0623e+06	403912	-318
5.0623e+06	403914	-318
5.0623e+06	403916	-318
5.0623e+06	403918	-318
5.0623e+06	403920	-318
5.0623e+06	403922	-318
5.0623e+06	403924	-318
5.0623e+06	403926	-318
5.0623e+06	403928	-318
5.0623e+06	403930	-318
5.0623e+06	403932	-318
5.0623e+06	403746	-318
5.0623e+06	403748	-318
5.0623e+06	403750	-318
5.0623e+06	403752	-318
5.0623e+06	403754	-318
5.0623e+06	403756	-318
5.0623e+06	403758	-318
5.0623e+06	403760	-318
5.0623e+06	403762	-318
5.0623e+06	403764	-318
5.0623e+06	403766	-318
5.0623e+06	403768	-318
5.0623e+06	403770	-318
5.0623e+06	403772	-318
5.0623e+06	403774	-318
5.0623e+06	403776	-318
5.0623e+06	403778	-318
5.0623e+06	403780	-318
5.0623e+06	403782	-318
5.0623e+06	403784	-318
5.0623e+06	403786	-318
5.0623e+06	403788	-318
5.0623e+06	403790	-318
5.0623e+06	403792	-318
5.0623e+06	403794	-318
5.0623e+06	403796	-318
5.0623e+06	403798	-318
5.0623e+06	403800	-318
5.0623e+06	403802	-318
5.0623e+06	403804	-318
5.0623e+06	403806	-318
5.0623e+06	403808	-318
5.0623e+06	403810	-318
5.0623e+06	403812	-318
5.0623e+06	403814	-318
5.0623e+06	403816	-318
5.0623e+06	403818	-318
5.0623e+06	403820	-318
5.0623e+06	403822	-318
5.0623e+06	403824	-318
5.0623e+06	403826	-318
5.0623e+06	403828	-318
5.0623e+06	403830	-318
5.0623e+06	403832	-318
5.0623e+06	403834	-318
5.0623e+06	403836	-318
5.0623e+06	403838	-318
5.0623e+06	403840	-318
5.0623e+06	403842	-318
5.0623e+06	403844	-318
5.0623e+06	403846	-318
5.0623e+06	403848	-318
5.0623e+06	403850	-318
5.0623e+06	403852	-318
5.0623e+06	403854	-318
5.0623e+06	403856	-318
5.0623e+06	403858	-318
5.0623e+06	403860	-318
5.0623e+06	403862	-318
5.0623e+06	403864	-318
5.0623e+06	403866	-318
5.0623e+06	403868	-318
5.0623e+06	403870	-318
5.0623e+06	403872	-318
5.0623e+06	403874	-318
5.0623e+06	403876	-318
5.0623e+06	403878	-318
5.0623e+06	403880	-318
5.0623e+06	403882	-318
5.0623e+06	403884	-318
5.0623e+06	403886	-318
5.0623e+06	403888	-318
5.0623e+06	403890	-318
5.0623e+06	403892	-318
5.0623e+06	403894	-318
5.0623e+06	403896	-318
5.0623e+06	403898	-318
5.0623e+06	403900	-318
5.0623e+06	403902	-318
5.0623e+06	403904	-318
5.0623e+06	403906	-318
5.0623e+06	403908	-318
5.0623e+06	403910	-318
5.0623e+06	403912	-318
5.0623e+06	403914	-318
5.0623e+06	403916	-318
5.0623e+06	403918	-318
5.0623e+06	403920	-318
5.0623e+06	403922	-318
5.0623e+06	403924	-318
5.0623e+06	403926	-318
5.0623e+06	403928	-318
5.0623e+06	403930	-318
5.0623e+06	403932	-318
5.0623e+06	403746	-318
5.0623e+06	403748	-318
5.0623e+06	403750	-318
5.0623e+06	403752	-318
5.0623e+06	403754	-318
5.0623e+06	403756	-318
5.0623e+06	403758	-318
5.0623e+06	403760	-318
5.0623e+06	403762	-318
5.0623e+06	403764	-318
5.0623e+06	403766	-318
5.0623e+06	403768	-318
5.0623e+06	403770	-318
5.0623e+06	403772	-318
5.0623e+06	403774	-318
5.0623e+06	403776	-318
5.0623e+06	403778	-318
5.0623e+06	403780	-318
5.0623e+06	403782	-318
5.0623e+06	403784	-318
5.0623e+06	403786	-318
5.0623e+06	403788	-318
5.0623e+06	403790	-318
5.0623e+06	403792	-318
5.0623e+06	403794	-318
5.0623e+06	403796	-318
5.0623e+06	403798	-318
5.0623e+06	403800	-318
5.0623e+06	403802	-318
5.0623e+06	403804	-318
5.0623e+06	403806	-318
5.0623e+06	403808	-318
5.0623e+06	403810	-318
5.0623e+06	403812	-318
5.0623e+06	403814	-318
5.0623e+06	403816	-318
5.0623e+06	403818	-318
5.0623e+06	403820	-318
5.0623e+06	403822	-318
5.0623e+06	403824	-318
5.0623e+06	403826	-318
5.0623e+06	403828	-318
5.0623e+06	403830	-318
5.0623e+06	403832	-318
5.0623e+06	403834	-318
5.0623e+06	403836	-318
5.0623e+06	403838	-318
5.0623e+06	403840	-318
5.0623e+06	403842	-318
5.0623e+06	403844	-318
5.0623e+06	403846	-318
5.0623e+06	403848	-318
5.0623e+06	403850	-318
5.0623e+06	403852	-318
5.0623e+06	403854	-318
5.0623e+06	403856	-318
5.0623e+06	403858	-318
5.0623e+06	403860	-318
5.0623e+06	403862	-318
5.0623e+06	403864	-318
5.0623e+06	403866	-318
5.0623e+06	403868	-318
5.0623e+06	403870	-318
5.0623e+06	403872	-318
5.0623e+06	403874	-318
5.0623e+06	403876	-318
5.0623e+06	403878	-318
5.0623e+06	403880	-318
5.0623e+06	403882	-318
5.0623e+06	403884	-318
5.0623e+06	403886	-318
5.0623e+06	403888	-318
5.0623e+06	403890	-318
5.0623e+06	403892	-318
5.0623e+06	403894	-318
5.0623e+06	403896	-318
5.0623e+06	403898	-318
5.0623e+06	403900	-318
5.0623e+06	403902	-318
5.0623e+06	403904	-318
5.0623e+06	403906	-318
5.0623e+06	403908	-318
5.0623e+06	403910	-318
5.0623e+06	403912	-318
5.0623e+06	403914	-318
5.0623e+06	403916	-318
5.0623e+06	403918	-318
5.0623e+06	403920	-318
5.0623e+06	403922	-318
5.0623e+06	403924	-318
5.0623e+06	403926	-318
5.0623e+06	403928	-318
5.0623e+06	403930	-318
5.0623e+06	403932	-318
5.0623e+06	403746	-318
5.0623e+06	403748	-318
5.0623e+06	403750	-318
5.0623e+06	403752	-318
5.0623e+06	403754	-318
5.0623e+06	403756	-318
5.0623e+06	403758	-318
5.0623e+06	403760	-318
5.0623e+06	403762	-318
5.0623e+06	403764	-318
5.0623e+06	403766	-318
5.0623e+06	403768	-318
5.0623e+06	403770	-318
5.0623e+06	403772	-318
5.0623e+06	403774	-318
5.0623e+06	403776	-318
5.0623e+06	403778	-318
5.0623e+06	403780	-318
5.0623e+06	403782	-318
5.0623e+06	403784	-318
5.0623e+06	403786	-318
5.0623e+06	403788	-318
5.0623e+06	403790	-318
5.0623e+06	403792	-318
5.0623e+06	403794	-318
5.0623e+06	403796	-318
5.0623e+06	403798	-318
5.0623e+06	403800	-318
5.0623e+06	403802	-318
5.0623e+06	403804	-318
5.0623e+06	403806	-318
5.0623e+06	403808	-318
5.0623e+06	403810	-318
5.0623e+06	403812	-318
5.0623e+06	403814	-318
5.0623e+06	403816	-318
5.0623e+06	403818	-318
5.0623e+06	403820	-318
5.0623e+06	403822	-318
5.0623e+06	403824	-318
5.0623e+06	403826	-318
5.0623e+06	403828	-318
5.0623e+06	403830	-318
5.0623e+06	403832	-318
5.0623e+06	403834	-318
5.0623e+06	403836	-318
5.0623e+06	403838	-318
5.0623e+06	403840	-318
5.0623e+06	403842	-318
5.0623e+06	403844	-318
5.0623e+06	403846	-318
5.0623e+06	403848	-318
5.0623e+06	403850	-318
5.0623e+06	403852	-318
5.0623e+06	403854	-318
5.0623e+06	403856	-318
5.0623e+06	403858	-318
5.0623e+06	403860	-318
5.0623e+06	403862	-318
5.0623e+06	403864	-318
5.0623e+06	403866	-318
5.0623e+06	403868	-318
5.0623e+06	403870	-318
5.0623e+06	403872	-318
5.0623e+06	403874	-318
5.0623e+06	403876	-318
5.0623e+06	403878	-318
5.0623e+06	403880	-318
5.0623e+06	403882	-318
5.0623e+06	403884	-318
5.0623e+06	403886	-318
5.0623e+06	403888	-318
5.0623e+06	403890	-318
5.0623e+06	403892	-318
5.0623e+06	403894	-318
5.0623e+06	403896	-318
5.0623e+06	403898	-318
5.0623e+06	403900	-318
5.0623e+06	403902	-318
5.0623e+06	403904	-318
5.0623e+06	403906	-318
5.0623e+06	403908	-318
5.0623e+06	403910	-318
5.0623e+06	403912	-318
5.0623e+06	403914	-318
5.0623e+06	403916	-318
5.0623e+06	403918	-318
5.0623e+06	403920	-318
5.0623e+06	403922	-318
5.0623e+06	403924	-318
5.0623e+06	403926	-318
5.0623e+06	403928	-318
5.0623e+06	403930	-318
5.0623e+06	403932	-318
5.0623e+06	403746	-318
5.0623e+06	403748	-318
5.0623e+06	403750	-318
5.0623e+06	403752	-318
5.0623e+06	403754	-318
5.0623e+06	403756	-318
5.0623e+06	403758	-318
5.0623e+06	403760	-318
5.0623e+06	403762	-318
5.0623e+06	403764	-318
5.0623e+06	403766	-318
5.0623e+06	403768	-318
5.0623e+06	403770	-318
5.0623e+06	403772	-318
5.0623e+06	403774	-318
5.0623e+06	403776	-318
5.0623e+06	403778	-318
5.0623e+06	403780	-318
5.0623e+06	403782	-318
5.0623e+06	403784	-318
5.0623e+06	403786	-318
5.0623e+06	403788	-318
5.0623e+06	403790	-318
5.0623e+06	403792	-318
5.0623e+06	403794	-318
5.0623e+06	403796	-318
5.0623e+06	403798	-318
5.0623e+06	403800	-318
5.0623e+06	403802	-318
5.0623e+06	403804	-318
5.0623e+06	403806	-318
5.0623e+06	403808	-318
5.0623e+06	403810	-318
5.0623e+06	403812	-318
5.0623e+06	403814	-318
5.0623e+06	403816	-318
5.0623e+06	403818	-318
5.0623e+06	403820	-318
5.0623e+06	403822	-318
5.0623e+06	403824	-318
5.0623e+06	403826	-318
5.0623e+06	403828	-318
5.0623e+06	403830	-318
5.0623e+06	403832	-318
5.0623e+06	403834	-318
5.0623e+06	403836	-318
5.0623e+06	403838	-318
5.0623e+06	403840	-318
5.0623e+06	403842	-318
5.0623e+06	403844	-318
5.0623e+06	403846	-318
5.0623e+06	403848	-318
5.0623e+06	403850	-318
5.0623e+06	403852	-318
[...]
CELL_DATA	11374
SCALARS g_z double 1
LOOKUP_TABLE table0
0.354674
0.395524
0.401725
0.396903
0.391899
0.387765
0.383355
0.379946
0.376484
0.372171
0.368709
0.365198
0.360566
0.355641
0.349713
0.343506
0.338017
0.333078
0.328446
0.323395
0.31728
0.309677
0.301497
0.293147
0.284773
0.276313
0.267915
0.259552
0.251221
0.24277
0.234388
0.226408
0.219819
0.214479
0.208375
0.202408
0.197939
0.193279
0.187905
0.181513
0.175583
0.170475
0.165665
0.160914
0.157783
0.154825
0.15139
0.150394
0.151582
0.153934
0.156758
0.15979
0.163353
0.16765
0.172705
0.178656
0.184318
0.19049
0.197029
0.201959
0.206067
0.210285
0.213529
0.215764
0.2175
0.219399
0.221019
0.221803
0.222418
0.223249
0.223604
0.22366
0.224321
0.225942
0.227462
0.227959
0.227751
0.227546
0.227868
0.228768
0.229391
0.229515
0.229284
0.228933
0.228501
0.228222
0.228416
0.230103
0.232945
0.234077
0.23225
0.230876
0.240379
0.282964
0.389867
0.446568
0.456743
0.452244
0.446816
0.442635
0.438661
0.435789
0.432464
0.428152
0.424
0.419686
0.415036
0.409968
0.404338
0.397938
0.391644
0.386224
0.381021
0.375335
0.368029
0.359242
0.349721
0.339909
0.329999
0.32018
0.310541
0.301111
0.291724
0.282135
0.27242
0.263269
0.255927
0.250321
0.243666
0.237077
0.231954
0.226512
0.220976
0.214947
0.209301
0.205112
0.201257
0.197325
0.194447
0.191409
0.187987
0.186237
0.185868
0.185998
0.186215
0.186408
0.186779
0.187618
0.189586
0.193065
0.196491
0.200282
0.205004
0.208745
0.212204
0.21571
0.21753
0.218118
0.218663
0.219557
0.220066
0.22001
0.219781
0.219595
0.21931
0.219014
0.219062
0.220012
0.221639
0.222381
0.222302
0.222034
0.221823
0.221764
0.221686
0.221627
0.221541
0.221386
0.221047
0.220763
0.220749
0.221662
0.22317
0.223659
0.221205
0.219825
0.233664
0.292377
0.395984
0.457331
0.468594
0.463652
0.457106
0.452364
0.448992
0.445972
0.442292
0.438185
0.433412
0.428778
0.423843
0.418922
0.413208
0.40708
0.400441
0.393843
0.387466
0.380128
0.371469
0.361905
0.351695
0.340875
0.329738
0.319145
0.309275
0.300151
0.291472
0.282222
0.272386
0.262959
0.255461
0.249793
0.243002
0.23609
0.230519
0.224276
0.217955
0.212353
0.207022
0.2028
0.198622
0.195053
0.191932
0.188647
0.186069
0.184393
0.183126
0.182353
0.181916
0.18164
0.181759
0.182473
0.183633
0.185839
0.189151
0.19307
0.19776
0.202351
0.206909
0.210273
0.212087
0.212794
0.213608
0.215041
0.215608
0.215383
0.214927
0.214472
0.214021
0.213629
0.213445
0.21377
0.214509
0.214995
0.215079
0.214924
0.214597
0.214282
0.214108
0.214436
0.215129
0.215476
0.215311
0.215063
0.214924
0.215302
0.216109
0.216481
0.213779
0.21213
0.227203
0.29098
0.391693
0.45374
0.465489
0.459911
0.452107
0.447448
0.444231
0.440613
0.436988
0.432991
0.428103
0.423343
0.418312
0.413302
0.407321
0.400723
0.393809
0.385953
0.377521
0.368433
0.358765
0.348621
0.337647
0.325615
0.31328
0.302256
0.292527
0.284325
0.277397
0.269296
0.259881
0.250572
0.243115
0.237477
0.23057
0.223191
0.217037
0.210555
0.203862
0.198184
0.193024
0.188458
0.183871
0.179833
0.176179
0.173215
0.170963
0.169066
0.167007
0.165719
0.165194
0.165145
0.165967
0.167744
0.169463
0.171707
0.175132
0.179751
0.18467
0.19035
0.195856
0.199979
0.202909
0.204579
0.206103
0.207505
0.208016
0.207793
0.207295
0.206812
0.20644
0.206263
0.206203
0.20622
0.206352
0.206842
0.207565
0.207854
0.207623
0.207305
0.207226
0.207993
0.209495
0.210252
0.210237
0.210179
0.210198
0.210462
0.21065
0.210069
0.207002
0.205434
0.220583
0.28517
0.386151
0.448867
0.460793
0.454664
0.446542
0.44196
0.438533
0.434859
0.431144
0.426698
0.421929
0.416927
0.412009
0.406511
0.40048
0.393582
0.385623
0.376581
0.366512
0.355775
0.344981
0.333879
0.321663
0.308753
0.296715
0.286062
0.276535
0.268613
0.262372
0.255345
0.246636
0.237576
0.230209
0.224595
0.217519
0.209401
0.202308
0.196189
0.189435
0.183125
0.177986
0.173038
0.168414
0.163777
0.160038
0.156925
0.154116
0.152144
0.150264
0.148616
0.147843
0.147922
0.149041
0.151143
0.153554
0.156841
0.160927
0.165856
0.170896
0.176473
0.181844
0.186614
0.190144
0.19265
0.19528
0.197346
0.198228
0.198195
0.197745
0.197365
0.197355
0.197928
0.198759
0.199139
0.199238
0.199936
0.20135
0.20204
0.201964
0.201745
0.201752
0.20237
0.203262
0.203698
0.20372
0.204106
0.204875
0.205487
0.205368
0.204086
0.2008
0.19964
0.214926
0.279494
0.382781
0.446106
0.457489
0.450778
0.443057
0.438293
0.434575
0.431453
0.427762
0.423169
0.418404
0.413407
0.408417
0.402548
0.395877
0.388728
0.380142
0.370372
0.359331
0.346922
0.334449
0.321692
0.307954
0.295106
0.283844
0.273712
0.264391
0.256126
0.249462
0.243351
0.235434
0.226661
0.219421
0.213826
0.206604
0.197922
0.189972
0.183576
0.176956
0.170331
0.164806
0.159657
0.154899
0.150086
0.145907
0.142265
0.139506
0.137442
0.135437
0.133202
0.132045
0.132046
0.133192
0.135597
0.138342
0.142103
0.14684
0.151774
0.156849
0.16195
0.167197
0.17212
0.176392
0.179597
0.182466
0.18549
0.187501
0.18807
0.18785
0.187808
0.188611
0.190516
0.192612
0.193422
0.193444
0.19374
0.194468
0.19497
0.195068
0.195103
0.195484
0.196373
0.196918
0.197004
0.197
0.197795
0.199422
0.200552
0.200577
0.199164
0.195427
0.193769
0.209387
0.274843
0.380216
0.44358
0.454321
0.447747
0.440066
0.435095
0.431779
0.428696
0.424883
0.420721
0.415926
0.411229
0.406034
0.400414
0.393322
0.385099
0.375865
0.365646
0.3541
0.34085
0.326576
0.311727
0.296426
0.282954
0.271422
0.261656
0.25322
0.245354
0.238674
0.232928
0.225447
0.216959
0.209868
0.204239
0.196869
0.187824
0.178953
0.17134
0.164724
0.158017
0.151649
0.146243
0.141247
0.136481
0.131849
0.128138
0.125451
0.122972
0.120798
0.118668
0.117474
0.117327
0.118049
0.119882
0.122874
0.127177
0.132129
0.137301
0.142265
0.14737
0.152772
0.158346
0.163104
0.167211
0.170162
0.173236
0.17651
0.17796
0.178174
0.178853
0.180941
0.183836
0.185706
0.186213
0.186093
0.186088
0.186405
0.187047
0.187833
0.188373
0.189189
0.190688
0.191396
0.191428
0.19144
0.192086
0.193247
0.194509
0.195159
0.194026
0.190019
0.188045
0.204292
0.270978
0.37689
0.440534
0.451588
0.445026
0.437238
0.432962
0.429921
0.426308
0.422675
0.418853
0.414458
0.410102
0.404706
0.399077
0.392188
0.383682
0.373979
0.363072
0.350429
0.336052
0.320414
0.303147
0.285591
0.270162
0.257355
0.248029
0.241461
0.23548
0.229757
0.223991
0.216539
0.208455
0.201599
0.195487
0.187617
0.178244
0.1687
0.159841
0.152077
0.145009
0.137997
0.132056
0.127062
0.122164
0.117475
0.11328
0.110281
0.10818
0.106199
0.103983
0.102792
0.102551
0.102827
0.104135
0.107103
0.111362
0.116878
0.122414
0.127656
0.132798
0.138718
0.145126
0.150519
0.155191
0.158627
0.16198
0.165895
0.167992
0.168727
0.170367
0.173639
0.176257
0.177276
0.17746
0.177478
0.177906
0.178848
0.180138
0.181711
0.182577
0.183176
0.184073
0.184581
0.184747
0.185085
0.18602
0.186945
0.188279
0.189665
0.189
0.18504
0.182733
0.198692
0.26635
0.372876
0.437516
0.448808
0.442162
0.435111
0.431413
0.428245
0.424595
0.420951
0.41688
0.413018
0.408863
0.403294
0.397337
0.391245
0.383391
0.373651
0.361846
0.347534
0.332103
0.315049
0.295508
0.274923
0.256543
0.242872
0.234659
0.230185
0.226942
0.222641
0.216557
0.209198
0.201518
0.194515
0.186941
0.177964
0.168184
0.158328
0.148758
0.1397
0.13123
0.123551
0.11747
0.112258
0.107358
0.102464
0.0980514
0.0946213
0.0924982
0.0905315
0.0887443
0.0878225
0.0875367
0.0875511
0.0882865
0.0904908
0.0946068
0.100626
0.107043
0.112709
0.118198
0.124228
0.131105
0.137251
0.14225
0.14661
0.150737
0.154993
0.157809
0.159309
0.161633
0.165268
0.167468
0.168185
0.168815
0.169764
0.171014
0.172686
0.173958
0.174895
0.175463
0.175865
0.176592
0.177455
0.178024
0.1788
0.180355
0.181379
0.182408
0.183338
0.182857
0.179459
0.177169
0.192985
0.261398
0.369126
0.434562
0.445972
0.440092
0.433553
0.429453
0.425887
0.422791
0.419272
0.415321
0.411529
0.406991
0.401759
0.395864
0.390112
0.383122
0.373808
0.361639
0.346419
0.330074
0.312033
0.290396
0.266754
0.245419
0.23064
0.224303
0.222663
0.221383
0.217497
0.211133
0.20381
0.195596
0.186984
0.17743
0.166828
0.156325
0.146255
0.136435
0.126762
0.11742
0.109109
0.102552
0.0969902
0.0915928
0.0867221
0.0821172
0.0789803
0.0768623
0.0743608
0.072324
0.0713106
0.0708613
0.0706544
0.0710606
0.0732054
0.0779796
0.084125
0.0909093
0.0974116
0.103274
0.109697
0.116811
0.123325
0.129138
0.134104
0.139013
0.143485
0.147447
0.150189
0.153156
0.156498
0.158304
0.159402
0.161264
0.163493
0.164898
0.165847
0.166496
0.166946
0.1676
0.168566
0.169846
0.171401
0.172299
0.172962
0.173974
0.174693
0.175644
0.176648
0.17663
0.174066
0.172112
0.187763
0.256301
0.365242
0.431347
0.443657
0.438337
0.431353
0.426581
0.423236
0.420246
0.416728
0.413433
0.409712
0.405079
0.40006
0.394286
0.38849
0.382591
0.374158
0.362305
0.347331
0.331047
0.311857
0.288656
0.263888
0.241234
0.226168
0.22142
0.221335
0.220284
0.215822
0.208196
0.198953
0.188684
0.178099
0.166612
0.154032
0.142513
0.132119
0.12213
0.112265
0.102656
0.0940775
0.087152
0.0807737
0.0748855
0.0698276
0.0651285
0.0619629
0.0601302
0.058179
0.0559889
0.0547491
0.0539446
0.0533484
0.0538786
0.0561609
0.0611883
0.0678359
0.074533
0.0813256
0.0879848
0.0947533
0.102189
0.109479
0.116309
0.122236
0.127845
0.132723
0.137538
0.141494
0.145315
0.147954
0.149299
0.151132
0.154217
0.156457
0.157315
0.157715
0.158425
0.159503
0.1608
0.162461
0.163702
0.164627
0.165329
0.166127
0.167268
0.168053
0.16926
0.170919
0.171097
0.16834
0.166628
0.182361
0.251234
0.36144
0.42853
0.44121
0.435619
0.42815
0.423601
0.420321
0.41711
0.413988
0.410707
0.406889
0.402789
0.397892
0.392847
0.387648
0.382559
0.375042
0.36408
0.349939
0.333686
0.314219
0.291649
0.268383
0.248341
0.235592
0.232347
0.231332
0.226701
0.217985
0.206962
0.194407
0.181029
0.168339
0.155281
0.141722
0.129418
0.118143
0.107585
0.0974233
0.0875601
0.078534
0.070826
0.0642135
0.0582373
0.0525612
0.0477964
0.0439192
0.0419945
0.0410841
0.04013
0.0393599
0.0383413
0.0373342
0.0380476
0.0399783
0.0440873
0.0508831
0.0582415
0.0650427
0.0720957
0.0798146
0.0878432
0.0954751
0.103172
0.110379
0.116663
0.122322
0.127905
0.132534
0.136766
0.139172
0.140648
0.143149
0.146326
0.147989
0.148564
0.149407
0.151195
0.153347
0.154699
0.155623
0.156243
0.156704
0.157551
0.159219
0.16132
0.162466
0.163586
0.164996
0.16527
0.16253
0.161219
0.177353
0.2467
0.358132
0.425629
0.437686
0.431646
0.424314
0.420035
0.416765
0.414002
0.410808
0.406912
0.403263
0.399878
0.395617
0.391288
0.387062
0.382898
0.376566
0.367297
0.354389
0.337985
0.318703
0.297954
0.278591
0.264306
0.256778
0.254509
0.249694
0.237519
0.221399
0.205167
0.188804
0.173
0.158232
0.143517
0.129661
0.116552
0.103903
0.0923257
0.0813127
0.0709902
0.0616136
0.0537389
0.0474404
0.0407843
0.0343238
0.0292843
0.0249865
0.0229592
0.0225741
0.0224767
0.0221819
0.0215324
0.0210059
0.0214612
0.0230355
0.0267158
0.033149
0.041074
0.0488196
0.0562857
0.0647573
0.0737255
0.0823976
0.0906729
0.0980302
0.104667
0.111685
0.1182
0.123151
0.127552
0.130187
0.132378
0.135584
0.13796
0.138962
0.139884
0.141885
0.144628
0.146431
0.147111
0.147444
0.14815
0.149232
0.150681
0.15284
0.154715
0.155793
0.157059
0.158784
0.159601
0.156779
0.15495
0.171344
0.241924
0.354574
0.422347
0.434475
0.427885
0.420024
0.41573
0.412877
0.41039
0.406756
0.40259
0.398775
0.395818
0.392363
0.388617
0.38557
0.382343
0.377675
0.370683
0.358858
0.342869
0.324113
0.305269
0.289601
0.279846
0.276161
0.273637
0.263765
0.244691
0.222429
0.201295
0.181702
0.164365
0.148004
0.131894
0.117027
0.102806
0.0894676
0.0771343
0.0652199
0.0545396
0.0450177
0.0368441
0.0298852
0.0222565
0.0151007
0.00978578
0.00538977
0.00328024
0.00286992
0.00279777
0.00241244
0.00189461
0.00217475
0.00305666
0.00512004
0.00927954
0.0149969
0.0228095
0.031599
0.0404911
0.0499554
0.0597821
0.0693372
0.0779489
0.0854002
0.0931352
0.101401
0.108522
0.113633
0.118209
0.121406
0.124388
0.127566
0.129176
0.129895
0.131609
0.134785
0.137195
0.138028
0.138238
0.138912
0.140762
0.142997
0.144521
0.145861
0.147344
0.148804
0.150548
0.152555
0.152959
0.14994
0.148241
0.165208
0.237185
0.350229
0.4192
0.431388
0.424271
0.41638
0.411706
0.408385
0.405857
0.402305
0.397925
0.394135
0.391242
0.387907
0.384796
0.382261
0.379227
0.375621
0.370137
0.35944
0.343572
0.325549
0.308953
0.296165
0.287974
0.283601
0.277683
0.263487
0.241754
0.217936
0.194583
0.172623
0.153508
0.136206
0.11916
0.103153
0.088285
0.0741383
0.0612273
0.0495721
0.0391551
0.0295302
0.0204874
0.0118403
0.00304339
-0.004865
-0.0106705
-0.0150005
-0.0173738
-0.0185797
-0.0191846
-0.0199172
-0.020577
-0.0192725
-0.0170887
-0.0140552
-0.00940451
-0.00393625
0.00375542
0.013089
0.0230888
0.033763
0.0447885
0.0552615
0.0648148
0.0737095
0.0827237
0.0916855
0.0990244
0.104184
0.108943
0.112909
0.116725
0.119213
0.120172
0.121179
0.123667
0.126944
0.128586
0.128814
0.129057
0.130628
0.133738
0.135983
0.137031
0.13812
0.140225
0.142638
0.144388
0.145537
0.145493
0.143052
0.142326
0.159651
0.231787
0.345921
0.415652
0.427606
0.420541
0.412729
0.407504
0.403896
0.401204
0.397512
0.393208
0.388963
0.385684
0.382641
0.379387
0.376487
0.373283
0.368825
0.362773
0.352488
0.337418
0.320792
0.306397
0.294771
0.285324
0.27731
0.267012
0.250552
0.229437
0.206635
0.18344
0.161505
0.141507
0.122775
0.104823
0.0881717
0.0725423
0.0579815
0.0442044
0.0323631
0.0220272
0.0121429
0.00234283
-0.00740174
-0.0169062
-0.0255331
-0.0321931
-0.0364885
-0.0395853
-0.0421054
-0.0433482
-0.0439561
-0.0440406
-0.0423817
-0.0390805
-0.0350085
-0.0298806
-0.0238661
-0.0157758
-0.00603055
0.00482525
0.0169618
0.0296302
0.0414801
0.0526538
0.0631243
0.0730463
0.0823544
0.0898074
0.0950467
0.0999491
0.104293
0.108345
0.110421
0.111224
0.112947
0.116224
0.118696
0.11943
0.119409
0.120132
0.122601
0.125901
0.127625
0.12842
0.130065
0.133181
0.135565
0.136949
0.137893
0.138409
0.136791
0.136235
0.153861
0.226395
0.341509
0.411407
0.423399
0.416099
0.408234
0.402991
0.398793
0.395668
0.392309
0.388107
0.383621
0.379494
0.376097
0.37266
0.368634
0.364454
0.358534
0.350763
0.340408
0.326839
0.311578
0.297902
0.285523
0.273773
0.26255
0.249135
0.231537
0.211317
0.190134
0.168767
0.148001
0.127965
0.10837
0.0894506
0.0718167
0.0557554
0.0409721
0.026689
0.0140202
0.00294688
-0.00779558
-0.0186436
-0.028973
-0.0384031
-0.0468488
-0.0539433
-0.0590454
-0.0632601
-0.0664727
-0.068061
-0.0685189
-0.0681234
-0.0663949
-0.062913
-0.0581738
-0.0524378
-0.0449997
-0.0358475
-0.0254592
-0.0135215
0.000143301
0.0137291
0.027049
0.040348
0.0525533
0.0634482
0.0731788
0.0810842
0.0867809
0.0917637
0.0961207
0.0997215
0.101421
0.10259
0.10511
0.108421
0.110024
0.1101
0.110052
0.111532
0.114899
0.117618
0.118823
0.119905
0.122172
0.125371
0.127391
0.128932
0.130743
0.132099
0.130439
0.130118
0.148577
0.221722
0.337803
0.407532
0.418972
0.411556
0.403585
0.398122
0.393667
0.389762
0.386241
0.382339
0.377532
0.372929
0.368428
0.364212
0.359028
0.353601
0.346895
0.338314
0.327702
0.314613
0.299915
0.285751
0.272034
0.258933
0.24563
0.229719
0.211107
0.191243
0.171093
0.150991
0.131001
0.111094
0.0912625
0.0719144
0.0541939
0.0386137
0.023685
0.00931375
-0.00460142
-0.0171938
-0.0294962
-0.0417276
-0.0525001
-0.0616614
-0.0694989
-0.0767822
-0.0827717
-0.0875824
-0.0916436
-0.0940383
-0.0946988
-0.0939522
-0.091675
-0.088029
-0.0834472
-0.076762
-0.067914
-0.0574296
-0.0457259
-0.0325867
-0.0178108
-0.00305731
0.0121247
0.0270457
0.0410186
0.0533562
0.0638847
0.0726912
0.0793573
0.0843327
0.0886745
0.0913241
0.0924407
0.0941835
0.097535
0.100196
0.10097
0.100704
0.100672
0.102591
0.106355
0.108892
0.110259
0.112296
0.115079
0.11747
0.119289
0.121694
0.124423
0.125763
0.124188
0.124297
0.142945
0.21703
0.333986
0.403451
0.414531
0.406445
0.398016
0.392841
0.38839
0.384194
0.379907
0.375608
0.3705
0.365206
0.359714
0.354702
0.348368
0.341384
0.334155
0.325328
0.314333
0.300957
0.286429
0.27175
0.25734
0.242915
0.227727
0.210172
0.190887
0.171096
0.151277
0.131546
0.111844
0.0920256
0.0721441
0.052779
0.0353558
0.0202266
0.00539823
-0.00911095
-0.0238947
-0.0379424
-0.0517387
-0.064258
-0.0750715
-0.084588
-0.0931945
-0.100986
-0.107219
-0.11245
-0.116887
-0.120003
-0.12093
-0.119981
-0.11749
-0.114358
-0.109997
-0.103013
-0.0933226
-0.0812974
-0.0676547
-0.0528396
-0.0365288
-0.0198832
-0.00263365
0.0139743
0.028992
0.042903
0.0544691
0.0639691
0.0712701
0.0763636
0.0805373
0.082542
0.0832408
0.0851257
0.0886589
0.090947
0.0914334
0.0911737
0.0912349
0.0932681
0.0971114
0.0997709
0.10188
0.105085
0.107694
0.109657
0.112025
0.115246
0.117931
0.119393
0.118172
0.118041
0.137023
0.212364
0.329171
0.399127
0.409964
0.401448
0.392153
0.38678
0.382594
0.378114
0.373573
0.368662
0.363345
0.356935
0.350538
0.345085
0.338013
0.329647
0.320932
0.311312
0.299986
0.286588
0.271952
0.257201
0.242209
0.226649
0.209475
0.190648
0.170979
0.15111
0.13125
0.11154
0.0919808
0.0723017
0.0524963
0.0332134
0.0159462
0.000931834
-0.0139544
-0.0287102
-0.044088
-0.0590282
-0.0732238
-0.0858282
-0.0971731
-0.107466
-0.116949
-0.125617
-0.132671
-0.138124
-0.142851
-0.145628
-0.146364
-0.145818
-0.144333
-0.14163
-0.136667
-0.129555
-0.119336
-0.106099
-0.0912955
-0.0748591
-0.0564012
-0.0367561
-0.0171253
0.00126541
0.0177818
0.033025
0.0454367
0.0553434
0.0630361
0.0683519
0.0720373
0.0734326
0.07371
0.0750165
0.0777367
0.07981
0.080931
0.0813447
0.0817407
0.0838505
0.0876833
0.0904292
0.0929829
0.0967587
0.0994307
0.101808
0.105108
0.108194
0.110773
0.112825
0.111533
0.111566
0.131157
0.206818
0.324294
0.394641
0.405599
0.396747
0.386961
0.380725
0.376103
0.371433
0.366675
0.361472
0.355506
0.348149
0.341175
0.335513
0.328135
0.318968
0.309029
0.298329
0.286026
0.272023
0.257344
0.242312
0.226755
0.209744
0.191033
0.171278
0.151169
0.130969
0.110599
0.0905921
0.0715356
0.0524016
0.0328593
0.0137967
-0.00335044
-0.0185349
-0.0339917
-0.0493426
-0.065109
-0.080609
-0.0946259
-0.107755
-0.120296
-0.131393
-0.141453
-0.150825
-0.158897
-0.165299
-0.170604
-0.173294
-0.174032
-0.173942
-0.173091
-0.170395
-0.164754
-0.156749
-0.145855
-0.1322
-0.116336
-0.0988712
-0.07854
-0.0557796
-0.0333821
-0.0122279
0.00715754
0.0243436
0.0379824
0.0481997
0.0558377
0.061204
0.0638345
0.0643591
0.0641263
0.0643753
0.0654099
0.0669693
0.0691832
0.0709594
0.0721356
0.0744514
0.0782565
0.0809728
0.0836357
0.0876692
0.0908599
0.0939585
0.0974663
0.100399
0.103221
0.10538
0.10423
0.10501
0.12477
0.200941
0.319432
0.390232
0.401209
0.392306
0.38209
0.375349
0.370074
0.365112
0.359753
0.354312
0.347226
0.338906
0.33149
0.325543
0.317901
0.308109
0.297171
0.285471
0.272177
0.257731
0.242664
0.227232
0.210736
0.192922
0.173375
0.15256
0.131611
0.110569
0.0890707
0.0685968
0.0506258
0.0324325
0.0134108
-0.00503599
-0.0218189
-0.0375928
-0.054272
-0.0706657
-0.0861697
-0.10155
-0.115935
-0.130073
-0.143257
-0.155196
-0.165999
-0.175971
-0.185182
-0.193336
-0.199688
-0.203066
-0.204695
-0.20517
-0.204313
-0.201279
-0.195586
-0.187384
-0.175624
-0.161074
-0.14386
-0.124641
-0.102536
-0.077279
-0.0514079
-0.0259631
-0.00279963
0.0170346
0.0325733
0.043019
0.0496202
0.0538725
0.0554027
0.0552796
0.0546865
0.0542203
0.0541568
0.0549042
0.0570785
0.060171
0.062372
0.0650157
0.0688393
0.0714912
0.0741718
0.078406
0.0823363
0.0863523
0.0895208
0.0925408
0.0960473
0.0979614
0.0968928
0.0979899
0.118329
0.195477
0.314222
0.385382
0.396543
0.387475
0.376918
0.369504
0.363989
0.358425
0.352558
0.346456
0.338346
0.329241
0.321047
0.314142
0.305896
0.295661
0.284001
0.272093
0.258881
0.243851
0.228324
0.212138
0.194977
0.177162
0.157228
0.135218
0.113019
0.090883
0.068305
0.0477567
0.0303733
0.0127546
-0.00569939
-0.0232286
-0.0393207
-0.0561171
-0.074079
-0.0912255
-0.106698
-0.12218
-0.1373
-0.152213
-0.166324
-0.179717
-0.191814
-0.202662
-0.212831
-0.222133
-0.229345
-0.233808
-0.237098
-0.23848
-0.237604
-0.234216
-0.228606
-0.220201
-0.208542
-0.193454
-0.175176
-0.154199
-0.129916
-0.101662
-0.0709349
-0.0399985
-0.0118858
0.0111882
0.0278964
0.0378324
0.0432888
0.0456626
0.0460167
0.0455461
0.0448773
0.0442724
0.0439212
0.0442351
0.0459325
0.0492273
0.0522266
0.0553238
0.0592012
0.061894
0.0646547
0.0690379
0.0733971
0.0779456
0.0813423
0.0849122
0.0889156
0.0912026
0.0903383
0.0911468