# vtk DataFile Version 3.0
Gravity effects
ASCII
DATASET UNSTRUCTURED_GRID

POINTS	11374	double
5.0623e+06	403746	-318
5.0623e+06	403748	-318
5.0623e+06	403750	-318
5.0623e+06	403752	-318
5.0623e+06	403754	-318
5.0623e+06	403756	-318
5.0623e+06	403758	-318
5.0623e+06	403760	-318
5.0623e+06	403762	-318
5.0623e+06	403764	-318
5.0623e+06	403766	-318
5.0623e+06	403768	-318
5.0623e+06	403770	-318
5.0623e+06	403772	-318
5.0623e+06	403774	-318
5.0623e+06	403776	-318
5.0623e+06	403778	-318
5.0623e+06	403780	-318
5.0623e+06	403782	-318
5.0623e+06	403784	-318
5.0623e+06	403786	-318
5.0623e+06	403788	-318
5.0623e+06	403790	-318
5.0623e+06	403792	-318
5.0623e+06	403794	-318
5.0623e+06	403796	-318
5.0623e+06	403798	-318
5.0623e+06	403800	-318
5.0623e+06	403802	-318
5.0623e+06	403804	-318
5.0623e+06	403806	-318
5.0623e+06	403808	-318
5.0623e+06	403810	-318
5.0623e+06	403812	-318
5.0623e+06	403814	-318
5.0623e+06	403816	-318
5.0623e+06	403818	-318
5.0623e+06	403820	-318
5.0623e+06	403822	-318
5.0623e+06	403824	-318
5.0623e+06	403826	-318
5.0623e+06	403828	-318
5.0623e+06	403830	-318
5.0623e+06	403832	-318
5.0623e+06	403834	-318
5.0623e+06	403836	-318
5.0623e+06	403838	-318
5.0623e+06	403840	-318
5.0623e+06	403842	-318
5.0623e+06	403844	-318
5.0623e+06	403846	-318
5.0623e+06	403848	-318
5.0623e+06	403850	-318
5.0623e+06	403852	-318
5.0623e+06	403854	-318
5.0623e+06	403856	-318
5.0623e+06	403858	-318
5.0623e+06	403860	-318
5.0623e+06	403862	-318
5.0623e+06	403864	-318
5.0623e+06	403866	-318
5.0623e+06	403868	-318
5.0623e+06	403870	-318
5.0623e+06	403872	-318
5.0623e+06	403874	-318
5.0623e+06	403876	-318
5.0623e+06	403878	-318
5.0623e+06	403880	-318
5.0623e+06	403882	-318
5.0623e+06	403884	-318
5.0623e+06	403886	-318
5.0623e+06	403888	-318
5.0623e+06	403890	-318
5.0623e+06	403892	-318
5.0623e+06	403894	-318
5.0623e+06	403896	-318
5.0623e+06	403898	-318
5.0623e+06	403900	-318
5.0623e+06	403902	-318
5.0623e+06	403904	-318
5.0623e+06	403906	-318
5.0623e+06	403908	-318
5.0623e+06	403910	-318
5.0623e+06	403912	-318
5.0623e+06	403914	-318
5.0623e+06	403916	-318
5.0623e+06	403918	-318
5.0623e+06	403920	-318
5.0623e+06	403922	-318
5.0623e+06	403924	-318
5.0623e+06	403926	-318
5.0623e+06	403928	-318
5.0623e+06	403930	-318
5.0623e+06	403932	-318
5.0623e+06	403746	-318
5.0623e+06	403748	-318
5.0623e+06	403750	-318
5.0623e+06	403752	-318
5.0623e+06	403754	-318
5.0623e+06	403756	-318
5.0623e+06	403758	-318
5.0623e+06	403760	-318
5.0623e+06	403762	-318
5.0623e+06	403764	-318
5.0623e+06	403766	-318
5.0623e+06	403768	-318
5.0623e+06	403770	-318
5.0623e+06	403772	-318
5.0623e+06	403774	-318
5.0623e+06	403776	-318
5.0623e+06	403778	-318
5.0623e+06	403780	-318
5.0623e+06	403782	-318
5.0623e+06	403784	-318
5.0623e+06	403786	-318
5.0623e+06	403788	-318
5.0623e+06	403790	-318
5.0623e+06	403792	-318
5.0623e+06	403794	-318
5.0623e+06	403796	-318
5.0623e+06	403798	-318
5.0623e+06	403800	-318
5.0623e+06	403802	-318
5.0623e+06	403804	-318
5.0623e+06	403806	-318
5.0623e+06	403808	-318
5.0623e+06	403810	-318
5.0623e+06	403812	-318
5.0623e+06	403814	-318
5.0623e+06	403816	-318
5.0623e+06	403818	-318
5.0623e+06	403820	-318
5.0623e+06	403822	-318
5.0623e+06	403824	-318
5.0623e+06	403826	-318
5.0623e+06	403828	-318
5.0623e+06	403830	-318
5.0623e+06	403832	-318
5.0623e+06	403834	-318
5.0623e+06	403836	-318
5.0623e+06	403838	-318
5.0623e+06	403840	-318
5.0623e+06	403842	-318
5.0623e+06	403844	-318
5.0623e+06	403846	-318
5.0623e+06	403848	-318
5.0623e+06	403850	-318
5.0623e+06	403852	-318
5.0623e+06	403854	-318
5.0623e+06	403856	-318
5.0623e+06	403858	-318
5.0623e+06	403860	-318
5.0623e+06	403862	-318
5.0623e+06	403864	-318
5.0623e+06	403866	-318
5.0623e+06	403868	-318
5.0623e+06	403870	-318
5.0623e+06	403872	-318
5.0623e+06	403874	-318
5.0623e+06	403876	-318
5.0623e+06	403878	-318
5.0623e+06	403880	-318
5.0623e+06	403882	-318
5.0623e+06	403884	-318
5.0623e+06	403886	-318
5.0623e+06	403888	-318
5.0623e+06	403890	-318
5.0623e+06	403892	-318
5.0623e+06	403894	-318
5.0623e+06	403896	-318
5.0623e+06	403898	-318
5.0623e+06	403900	-318
5.0623e+06	403902	-318
5.0623e+06	403904	-318
5.0623e+06	403906	-318
5.0623e+06	403908	-318
5.0623e+06	403910	-318
5.0623e+06	403912	-318
5.0623e+06	403914	-318
5.0623e+06	403916	-318
5.0623e+06	403918	-318
5.0623e+06	403920	-318
5.0623e+06	403922	-318
5.0623e+06	403924	-318
5.0623e+06	403926	-318
5.0623e+06	403928	-318
5.0623e+06	403930	-318
5.0623e+06	403932	-318
5.0623e+06	403746	-318
5.0623e+06	403748	-318
5.0623e+06	403750	-318
5.0623e+06	403752	-318
5.0623e+06	403754	-318
5.0623e+06	403756	-318
5.0623e+06	403758	-318
5.0623e+06	403760	-318
5.0623e+06	403762	-318
5.0623e+06	403764	-318
5.0623e+06	403766	-318
5.0623e+06	403768	-318
5.0623e+06	403770	-318
5.0623e+06	403772	-318
5.0623e+06	403774	-318
5.0623e+06	403776	-318
5.0623e+06	403778	-318
5.0623e+06	403780	-318
5.0623e+06	403782	-318
5.0623e+06	403784	-318
5.0623e+06	403786	-318
5.0623e+06	403788	-318
5.0623e+06	403790	-318
5.0623e+06	403792	-318
5.0623e+06	403794	-318
5.0623e+06	403796	-318
5.0623e+06	403798	-318
5.0623e+06	403800	-318
5.0623e+06	403802	-318
5.0623e+06	403804	-318
5.0623e+06	403806	-318
5.0623e+06	403808	-318
5.0623e+06	403810	-318
5.0623e+06	403812	-318
5.0623e+06	403814	-318
5.0623e+06	403816	-318
5.0623e+06	403818	-318
5.0623e+06	403820	-318
5.0623e+06	403822	-318
5.0623e+06	403824	-318
5.0623e+06	403826	-318
5.0623e+06	403828	-318
5.0623e+06	403830	-318
5.0623e+06	403832	-318
5.0623e+06	403834	-318
5.0623e+06	403836	-318
5.0623e+06	403838	-318
5.0623e+06	403840	-318
5.0623e+06	403842	-318
5.0623e+06	403844	-318
5.0623e+06	403846	-318
5.0623e+06	403848	-318
5.0623e+06	403850	-318
5.0623e+06	403852	-318
5.0623e+06	403854	-318
5.0623e+06	403856	-318
5.0623e+06	403858	-318
5.0623e+06	403860	-318
5.0623e+06	403862	-318
5.0623e+06	403864	-318
5.0623e+06	403866	-318
5.0623e+06	403868	-318
5.0623e+06	403870	-318
5.0623e+06	403872	-318
5.0623e+06	403874	-318
5.0623e+06	403876	-318
5.0623e+06	403878	-318
5.0623e+06	403880	-318
5.0623e+06	403882	-318
5.0623e+06	403884	-318
5.0623e+06	403886	-318
5.0623e+06	403888	-318
5.0623e+06	403890	-318
5.0623e+06	403892	-318
5.0623e+06	403894	-318
5.0623e+06	403896	-318
5.0623e+06	403898	-318
5.0623e+06	403900	-318
5.0623e+06	403902	-318
5.0623e+06	403904	-318
5.0623e+06	403906	-318
5.0623e+06	403908	-318
5.0623e+06	403910	-318
5.0623e+06	403912	-318
5.0623e+06	403914	-318
5.0623e+06	403916	-318
5.0623e+06	403918	-318
5.0623e+06	403920	-318
5.0623e+06	403922	-318
5.0623e+06	403924	-318
5.0623e+06	403926	-318
5.0623e+06	403928	-318
5.0623e+06	403930	-318
5.0623e+06	403932	-318
5.0623e+06	403746	-318
5.0623e+06	403748	-318
5.0623e+06	403750	-318
5.0623e+06	403752	-318
5.0623e+06	403754	-318
5.0623e+06	403756	-318
5.0623e+06	403758	-318
5.0623e+06	403760	-318
5.0623e+06	403762	-318
5.0623e+06	403764	-318
5.0623e+06	403766	-318
5.0623e+06	403768	-318
5.0623e+06	403770	-318
5.0623e+06	403772	-318
5.0623e+06	403774	-318
5.0623e+06	403776	-318
5.0623e+06	403778	-318
5.0623e+06	403780	-318
5.0623e+06	403782	-318
5.0623e+06	403784	-318
5.0623e+06	403786	-318
5.0623e+06	403788	-318
5.0623e+06	403790	-318
5.0623e+06	403792	-318
5.0623e+06	403794	-318
5.0623e+06	403796	-318
5.0623e+06	403798	-318
5.0623e+06	403800	-318
5.0623e+06	403802	-318
5.0623e+06	403804	-318
5.0623e+06	403806	-318
5.0623e+06	403808	-318
5.0623e+06	403810	-318
5.0623e+06	403812	-318
5.0623e+06	403814	-318
5.0623e+06	403816	-318
5.0623e+06	403818	-318
5.0623e+06	403820	-318
5.0623e+06	403822	-318
5.0623e+06	403824	-318
5.0623e+06	403826	-318
5.0623e+06	403828	-318
5.0623e+06	403830	-318
5.0623e+06	403832	-318
5.0623e+06	403834	-318
5.0623e+06	403836	-318
5.0623e+06	403838	-318
5.0623e+06	403840	-318
5.0623e+06	403842	-318
5.0623e+06	403844	-318
5.0623e+06	403846	-318
5.0623e+06	403848	-318
5.0623e+06	403850	-318
5.0623e+06	403852	-318
5.0623e+06	403854	-318
5.0623e+06	403856	-318
5.0623e+06	403858	-318
5.0623e+06	403860	-318
5.0623e+06	403862	-318
5.0623e+06	403864	-318
5.0623e+06	403866	-318
5.0623e+06	403868	-318
5.0623e+06	403870	-318
5.0623e+06	403872	-318
5.0623e+06	403874	-318
5.0623e+06	403876	-318
5.0623e+06	403878	-318
5.0623e+06	403880	-318
5.0623e+06	403882	-318
5.0623e+06	403884	-318
5.0623e+06	403886	-318
5.0623e+06	403888	-318
5.0623e+06	403890	-318
5.0623e+06	403892	-318
5.0623e+06	403894	-318
5.0623e+06	403896	-318
5.0623e+06	403898	-318
5.0623e+06	403900	-318
5.0623e+06	403902	-318
5.0623e+06	403904	-318
5.0623e+06	403906	-318
5.0623e+06	403908	-318
5.0623e+06	403910	-318
5.0623e+06	403912	-318
5.0623e+06	403914	-318
5.0623e+06	403916	-318
5.0623e+06	403918	-318
5.0623e+06	403920	-318
5.0623e+06	403922	-318
5.0623e+06	403924	-318
5.0623e+06	403926	-318
5.0623e+06	403928	-318
5.0623e+06	403930	-318
5.0623e+06	403932	-318
5.0623e+06	403746	-318
5.0623e+06	403748	-318
5.0623e+06	403750	-318
5.0623e+06	403752	-318
5.0623e+06	403754	-318
5.0623e+06	403756	-318
5.0623e+06	403758	-318
5.0623e+06	403760	-318
5.0623e+06	403762	-318
5.0623e+06	403764	-318
5.0623e+06	403766	-318
5.0623e+06	403768	-318
5.0623e+06	403770	-318
5.0623e+06	403772	-318
5.0623e+06	403774	-318
5.0623e+06	403776	-318
5.0623e+06	403778	-318
5.0623e+06	403780	-318
5.0623e+06	403782	-318
5.0623e+06	403784	-318
5.0623e+06	403786	-318
5.0623e+06	403788	-318
5.0623e+06	403790	-318
5.0623e+06	403792	-318
5.0623e+06	403794	-318
5.0623e+06	403796	-318
5.0623e+06	403798	-318
5.0623e+06	403800	-318
5.0623e+06	403802	-318
5.0623e+06	403804	-318
5.0623e+06	403806	-318
5.0623e+06	403808	-318
5.0623e+06	403810	-318
5.0623e+06	403812	-318
5.0623e+06	403814	-318
5.0623e+06	403816	-318
5.0623e+06	403818	-318
5.0623e+06	403820	-318
5.0623e+06	403822	-318
5.0623e+06	403824	-318
5.0623e+06	403826	-318
5.0623e+06	403828	-318
5.0623e+06	403830	-318
5.0623e+06	403832	-318
5.0623e+06	403834	-318
5.0623e+06	403836	-318
5.0623e+06	403838	-318
5.0623e+06	403840	-318
5.0623e+06	403842	-318
5.0623e+06	403844	-318
5.0623e+06	403846	-318
5.0623e+06	403848	-318
5.0623e+06	403850	-318
5.0623e+06	403852	-318
[...]
CELL_DATA	11374
SCALARS g_z double 1
LOOKUP_TABLE table0
0.404458
0.409292
0.41337
0.416422
0.418147
0.41845
0.417308
0.414825
0.411488
0.407777
0.403785
0.399476
0.394805
0.389696
0.384101
0.378058
0.371641
0.364889
0.357693
0.34995
0.341708
0.333071
0.324182
0.315288
0.306624
0.298293
0.290328
0.282699
0.275244
0.267779
0.260199
0.252424
0.244489
0.23677
0.229645
0.223136
0.217151
0.211597
0.206385
0.201417
0.196565
0.191684
0.18678
0.182337
0.178844
0.176325
0.174671
0.173795
0.173636
0.174178
0.175476
0.177615
0.180587
0.184076
0.187772
0.191691
0.195947
0.20053
0.205079
0.20921
0.212841
0.21598
0.218643
0.220882
0.222719
0.22409
0.2249
0.225154
0.225164
0.225246
0.225415
0.225593
0.225727
0.225839
0.225964
0.226107
0.226261
0.22642
0.226563
0.226674
0.226775
0.226897
0.227054
0.227186
0.227224
0.227145
0.226963
0.226871
0.22758
0.229858
0.234059
0.240397
0.248612
0.257031
0.409264
0.414756
0.419574
0.423295
0.425451
0.425965
0.424857
0.422263
0.418745
0.414852
0.410682
0.406192
0.401328
0.39598
0.39007
0.383629
0.376734
0.369433
0.361648
0.353302
0.344452
0.3352
0.325701
0.316248
0.307125
0.298453
0.290278
0.28256
0.275063
0.267525
0.259827
0.251889
0.243738
0.235783
0.228424
0.221677
0.21544
0.209624
0.204154
0.198951
0.193927
0.188995
0.184193
0.179866
0.176363
0.173735
0.171915
0.170844
0.170482
0.170822
0.171896
0.173752
0.176369
0.179533
0.183033
0.18686
0.191064
0.19559
0.200113
0.204286
0.207979
0.211137
0.213738
0.215898
0.217706
0.219055
0.21978
0.219849
0.219667
0.219643
0.219766
0.219904
0.219975
0.22003
0.220145
0.220309
0.220499
0.220695
0.220876
0.221031
0.221165
0.221287
0.221387
0.221421
0.221324
0.221019
0.220435
0.219745
0.219948
0.222121
0.226674
0.233867
0.243435
0.253277
0.412868
0.418894
0.424267
0.42848
0.430978
0.431674
0.430608
0.427947
0.424299
0.420253
0.415915
0.411239
0.406159
0.400542
0.394282
0.387399
0.379968
0.372049
0.363599
0.354573
0.345038
0.3351
0.324932
0.314872
0.305256
0.296237
0.287866
0.280077
0.272566
0.265009
0.257266
0.249255
0.241003
0.232917
0.225394
0.218444
0.211968
0.205888
0.200144
0.194682
0.189443
0.184374
0.179517
0.175151
0.171555
0.168776
0.166772
0.165496
0.164919
0.16503
0.165845
0.167392
0.169664
0.172519
0.175819
0.179561
0.18376
0.18833
0.192944
0.197253
0.201097
0.204384
0.207073
0.20931
0.211209
0.212649
0.213428
0.213499
0.213305
0.2133
0.213464
0.213639
0.213732
0.213809
0.213962
0.214181
0.214431
0.214689
0.214934
0.215155
0.215347
0.215504
0.215605
0.215602
0.215421
0.214955
0.214094
0.213041
0.212963
0.21512
0.219994
0.227867
0.238423
0.249321
0.415132
0.421559
0.427325
0.431882
0.434633
0.435474
0.434453
0.431756
0.428016
0.423843
0.419352
0.414492
0.409185
0.403277
0.396637
0.389262
0.38121
0.372558
0.363319
0.353502
0.343183
0.33245
0.321492
0.310719
0.300548
0.291173
0.282649
0.27487
0.267442
0.259961
0.252272
0.244315
0.236121
0.228055
0.22047
0.213365
0.206662
0.20031
0.194274
0.188521
0.183015
0.17772
0.172678
0.168145
0.164371
0.161398
0.159188
0.157697
0.156892
0.156749
0.157262
0.158445
0.160314
0.162812
0.165884
0.16955
0.17381
0.178542
0.183383
0.187948
0.192054
0.195595
0.198525
0.200994
0.203125
0.204791
0.205783
0.206047
0.20603
0.206186
0.206495
0.206797
0.206998
0.207172
0.207417
0.207726
0.208065
0.20841
0.208743
0.209052
0.209333
0.209573
0.20974
0.209772
0.209576
0.209028
0.208017
0.206784
0.206591
0.2088
0.213951
0.222334
0.23358
0.245231
0.416066
0.422792
0.428853
0.433671
0.436616
0.437573
0.436592
0.433868
0.430055
0.425777
0.421152
0.416121
0.410592
0.404391
0.397357
0.389442
0.380658
0.371082
0.360856
0.350109
0.338891
0.327217
0.31526
0.303574
0.29274
0.283002
0.27442
0.266844
0.259702
0.252434
0.244906
0.237153
0.229244
0.221419
0.213894
0.206678
0.199751
0.193111
0.186756
0.18068
0.174861
0.169276
0.163972
0.159195
0.15519
0.151991
0.149559
0.147845
0.146801
0.146381
0.146539
0.147249
0.148543
0.15052
0.153279
0.156869
0.161259
0.166287
0.171504
0.176452
0.180933
0.184845
0.188149
0.190989
0.193481
0.195506
0.196865
0.197506
0.197842
0.198297
0.198851
0.199361
0.199746
0.200079
0.200464
0.200896
0.201349
0.201801
0.20224
0.20266
0.20306
0.203431
0.203735
0.203878
0.203735
0.203172
0.202084
0.200745
0.200495
0.202775
0.208161
0.216946
0.228729
0.240973
0.415767
0.422722
0.429024
0.434059
0.437163
0.438215
0.437267
0.434518
0.430641
0.426279
0.421547
0.416374
0.41065
0.404181
0.39677
0.388306
0.378707
0.368004
0.356582
0.344801
0.332625
0.319897
0.306708
0.293875
0.282272
0.272162
0.263617
0.256479
0.249858
0.242902
0.235577
0.228123
0.22072
0.213355
0.205974
0.198648
0.191469
0.184506
0.177799
0.171363
0.165194
0.159277
0.153664
0.148602
0.144335
0.140895
0.138237
0.136302
0.135023
0.134319
0.134089
0.134219
0.134717
0.135953
0.138309
0.14182
0.146407
0.151864
0.157605
0.163045
0.16799
0.172371
0.176163
0.179493
0.182458
0.184953
0.186813
0.187999
0.188849
0.189716
0.190598
0.191382
0.19201
0.192556
0.193116
0.193697
0.19428
0.194854
0.195412
0.195958
0.196501
0.197046
0.197556
0.197886
0.197853
0.197321
0.196191
0.194756
0.194443
0.196782
0.202366
0.211489
0.223734
0.236497
0.414592
0.421719
0.428212
0.433425
0.436661
0.437796
0.436882
0.434121
0.430204
0.42579
0.42099
0.415722
0.40986
0.403184
0.395465
0.386528
0.376195
0.364452
0.351925
0.339201
0.326152
0.312451
0.2981
0.284171
0.271821
0.261327
0.252771
0.245992
0.239788
0.233026
0.225776
0.218481
0.211442
0.204401
0.197045
0.189512
0.182006
0.174663
0.167557
0.160724
0.15417
0.147891
0.141941
0.136573
0.132031
0.128348
0.125476
0.123341
0.121855
0.120899
0.120312
0.119899
0.119635
0.120165
0.122146
0.125602
0.130404
0.13631
0.142597
0.148562
0.154019
0.158929
0.163281
0.167178
0.170695
0.173739
0.176175
0.177975
0.179405
0.180741
0.181997
0.183095
0.183999
0.184782
0.185538
0.186282
0.187006
0.187709
0.188394
0.189074
0.189769
0.190501
0.191236
0.191775
0.19188
0.191412
0.190276
0.188779
0.188424
0.190817
0.196563
0.205957
0.21858
0.231776
0.412869
0.420122
0.426755
0.432101
0.435444
0.436654
0.435783
0.433039
0.429122
0.424701
0.419888
0.414597
0.408685
0.401909
0.394005
0.384758
0.373946
0.361552
0.348317
0.334937
0.321257
0.306869
0.291749
0.277077
0.264142
0.253247
0.244479
0.237653
0.231414
0.2245
0.217011
0.209487
0.202285
0.195057
0.187393
0.179454
0.171497
0.163693
0.156133
0.148863
0.141895
0.135228
0.128923
0.123236
0.11842
0.11451
0.111453
0.109167
0.107534
0.106399
0.105559
0.104782
0.104058
0.104174
0.105935
0.109384
0.11437
0.120618
0.127343
0.133788
0.13976
0.145229
0.150178
0.154687
0.158809
0.16245
0.165484
0.16788
0.169863
0.17167
0.173316
0.174742
0.175925
0.176946
0.1779
0.17881
0.179679
0.180513
0.181326
0.18214
0.182985
0.18389
0.184819
0.18554
0.185786
0.185408
0.184316
0.18283
0.182494
0.184951
0.190819
0.200398
0.213271
0.226774
0.410619
0.417965
0.424703
0.430151
0.433583
0.434865
0.434051
0.431356
0.427482
0.423104
0.418345
0.413124
0.407288
0.400559
0.392636
0.383288
0.372297
0.359659
0.346138
0.332451
0.318452
0.303734
0.288269
0.27323
0.259902
0.248591
0.239388
0.232103
0.225362
0.217881
0.209748
0.201511
0.193545
0.185553
0.177169
0.168571
0.160012
0.151654
0.143581
0.135834
0.128423
0.121348
0.114675
0.108667
0.103584
0.0994731
0.0962893
0.0939355
0.0922549
0.0910484
0.0900917
0.0891489
0.088237
0.088202
0.089901
0.0933926
0.0985114
0.104973
0.112001
0.118849
0.12532
0.131372
0.136964
0.142139
0.146917
0.151194
0.154838
0.157816
0.16033
0.162598
0.164633
0.166384
0.167841
0.169091
0.170237
0.171309
0.172317
0.173277
0.174213
0.175155
0.176143
0.177208
0.178308
0.179194
0.179582
0.179319
0.178315
0.1769
0.17663
0.179158
0.185101
0.194759
0.207732
0.221397
0.407762
0.41518
0.422007
0.427544
0.431056
0.432408
0.431666
0.429049
0.42526
0.420975
0.41634
0.411303
0.405712
0.399222
0.391466
0.382231
0.371353
0.358857
0.345451
0.331797
0.317793
0.303106
0.287729
0.272706
0.259181
0.247442
0.237592
0.229464
0.221781
0.213328
0.204146
0.194682
0.185302
0.175918
0.16638
0.156866
0.147559
0.13856
0.12992
0.12166
0.113781
0.106284
0.0992335
0.0929021
0.0875627
0.0832861
0.0800532
0.0777645
0.0761849
0.075037
0.0740929
0.0731469
0.0722455
0.0722468
0.0740076
0.0775763
0.0827622
0.0892812
0.0964482
0.103608
0.110565
0.117239
0.123549
0.129471
0.134971
0.139925
0.144205
0.147772
0.150816
0.15354
0.155958
0.158027
0.159746
0.161212
0.162538
0.16376
0.164895
0.165966
0.167012
0.168074
0.169199
0.170419
0.171689
0.172746
0.173288
0.173161
0.172282
0.170985
0.170816
0.173412
0.179377
0.18899
0.201868
0.215503
0.404297
0.411774
0.418682
0.424304
0.427886
0.429303
0.428639
0.426126
0.422455
0.418295
0.413832
0.409076
0.403909
0.397854
0.390426
0.381472
0.370944
0.358939
0.346008
0.332664
0.318898
0.304541
0.289663
0.275025
0.261467
0.24928
0.238595
0.229267
0.220243
0.210492
0.199942
0.188825
0.177399
0.16601
0.154954
0.144333
0.134169
0.124465
0.115217
0.106418
0.0980543
0.0901206
0.0826862
0.0760279
0.0704354
0.0660142
0.0628005
0.0607224
0.0594027
0.0584228
0.057587
0.0567538
0.0560081
0.0561872
0.0581075
0.0617905
0.0669928
0.0734061
0.0805443
0.0879505
0.0954013
0.102757
0.109885
0.116659
0.12295
0.128625
0.133568
0.137745
0.141329
0.144507
0.147298
0.149668
0.15163
0.153293
0.154779
0.156134
0.157378
0.158542
0.159679
0.160851
0.162109
0.163488
0.164942
0.166186
0.166897
0.166926
0.1662
0.16506
0.165024
0.167691
0.173638
0.183094
0.195668
0.209065
0.400463
0.407985
0.414958
0.420645
0.424279
0.425742
0.425136
0.422712
0.419144
0.4151
0.410806
0.406337
0.40161
0.396021
0.388969
0.380366
0.370281
0.358875
0.346532
0.33361
0.320186
0.30625
0.291943
0.277736
0.264149
0.251472
0.239866
0.229215
0.21871
0.207525
0.195482
0.182599
0.169027
0.155548
0.142906
0.131125
0.120066
0.109629
0.0997537
0.0904005
0.0815404
0.073161
0.0653318
0.0583343
0.0524727
0.0478869
0.0446701
0.0427823
0.041712
0.0409081
0.0402121
0.0395479
0.0390326
0.0394717
0.0416298
0.0454957
0.0507731
0.0571326
0.0642926
0.0719981
0.0799996
0.0880956
0.0961014
0.103781
0.110908
0.117338
0.122964
0.127759
0.131878
0.135497
0.138639
0.141287
0.143465
0.145297
0.146919
0.148385
0.14972
0.150961
0.152179
0.153454
0.154841
0.156381
0.158023
0.15946
0.160351
0.160546
0.159986
0.159014
0.159121
0.161866
0.167795
0.177095
0.189358
0.20251
0.396516
0.404066
0.411075
0.416796
0.420451
0.421927
0.421335
0.418937
0.415411
0.41143
0.407249
0.402979
0.398545
0.393286
0.386548
0.378271
0.368587
0.357667
0.345805
0.333266
0.320157
0.30654
0.29256
0.278522
0.264764
0.251528
0.238989
0.227096
0.2152
0.20261
0.189129
0.174674
0.159379
0.144244
0.130236
0.117381
0.105457
0.0942971
0.0837953
0.0738855
0.0645239
0.0556908
0.0474532
0.0400943
0.0339265
0.0291104
0.0257693
0.0238754
0.0228653
0.0221378
0.0215517
0.0210643
0.020803
0.0215449
0.0240133
0.0281673
0.0336868
0.0402562
0.0477033
0.055879
0.0645371
0.0734365
0.0823396
0.0909322
0.0989196
0.10613
0.112453
0.117856
0.12249
0.126524
0.129987
0.132875
0.135229
0.137192
0.138916
0.140465
0.14187
0.143176
0.14447
0.145842
0.147357
0.149055
0.150881
0.152509
0.153582
0.153949
0.153553
0.152737
0.152977
0.155812
0.16177
0.17102
0.183175
0.196277
0.392498
0.400064
0.407089
0.412816
0.41646
0.417906
0.417272
0.414827
0.411264
0.407271
0.403121
0.39894
0.394655
0.389587
0.38307
0.375063
0.365721
0.355207
0.343744
0.331532
0.318672
0.305249
0.291392
0.277312
0.263237
0.249354
0.235836
0.222696
0.209432
0.195481
0.180674
0.164901
0.148293
0.131919
0.11682
0.103037
0.0903228
0.0784758
0.0673646
0.056905
0.0470421
0.0377496
0.0290899
0.0213423
0.0148181
0.00968065
0.00606075
0.00394263
0.00277975
0.00199099
0.00145497
0.00114217
0.00117103
0.00227846
0.00514366
0.00970539
0.0156448
0.0226696
0.0306552
0.0394935
0.0489429
0.0587362
0.0685905
0.0781335
0.0870178
0.0950397
0.102076
0.108091
0.113225
0.117643
0.121385
0.12446
0.12693
0.128966
0.130742
0.132336
0.133781
0.135131
0.136484
0.137947
0.13959
0.141453
0.143471
0.145302
0.146569
0.147113
0.146878
0.146208
0.146578
0.149523
0.155572
0.164895
0.177128
0.190357
0.38839
0.395968
0.403
0.408716
0.41232
0.413692
0.412952
0.410379
0.406687
0.402596
0.398388
0.394195
0.389946
0.384961
0.378579
0.370785
0.361767
0.351678
0.340633
0.32873
0.316065
0.302761
0.288942
0.27473
0.26025
0.245627
0.231004
0.216444
0.201669
0.186332
0.170299
0.153424
0.135811
0.11851
0.102556
0.0879963
0.07458
0.062096
0.0504018
0.0394042
0.0290424
0.0192854
0.0101905
0.00202624
-0.00490899
-0.010466
-0.0145293
-0.0171032
-0.0186466
-0.0196477
-0.0202001
-0.0203278
-0.0199291
-0.018348
-0.0149825
-0.00989939
-0.00339091
0.00427892
0.0130038
0.0226839
0.0330738
0.0438826
0.0547846
0.065356
0.0751994
0.0840787
0.091864
0.0985164
0.104155
0.108932
0.112899
0.116086
0.118582
0.120603
0.122367
0.123957
0.125404
0.12676
0.128144
0.129685
0.131458
0.133505
0.13575
0.137818
0.139302
0.140035
0.139962
0.139433
0.139932
0.143011
0.149206
0.158705
0.171158
0.184646
0.384172
0.391758
0.398793
0.40449
0.408026
0.409281
0.408371
0.405579
0.401664
0.397384
0.39303
0.388731
0.38442
0.37942
0.373087
0.365441
0.356732
0.347133
0.336574
0.324966
0.312441
0.299199
0.285395
0.271035
0.256102
0.240667
0.224803
0.208568
0.192057
0.175297
0.158137
0.140347
0.121981
0.104007
0.0873965
0.0721958
0.0581651
0.0450966
0.0328475
0.0213234
0.0104624
0.000232739
-0.00931284
-0.0179223
-0.0253203
-0.0313841
-0.0360405
-0.0393042
-0.0414608
-0.0428175
-0.0434529
-0.0433874
-0.0425224
-0.0403456
-0.0363907
-0.0306991
-0.0235067
-0.0150398
-0.00540398
0.00528696
0.0167779
0.0287504
0.0408306
0.0525437
0.0634396
0.0732439
0.0818327
0.0891733
0.0953374
0.100442
0.10457
0.107781
0.110189
0.11209
0.113771
0.11531
0.116719
0.118038
0.119419
0.121025
0.122935
0.125189
0.127707
0.130061
0.13179
0.132726
0.132821
0.13243
0.133061
0.136292
0.142675
0.152423
0.165206
0.179055
0.379801
0.387382
0.394403
0.400054
0.403491
0.404587
0.403457
0.400387
0.396179
0.391635
0.387048
0.382549
0.378072
0.37295
0.366557
0.358953
0.350443
0.341225
0.331039
0.319616
0.307119
0.293828
0.279932
0.265337
0.249895
0.233631
0.216551
0.198703
0.180552
0.162493
0.144356
0.125829
0.1069
0.0884378
0.0713258
0.0556023
0.0410375
0.0274333
0.0146538
0.00260968
-0.00875777
-0.0194788
-0.0295033
-0.0385955
-0.046503
-0.0531297
-0.0584442
-0.0624692
-0.0653129
-0.0670969
-0.0678817
-0.0676816
-0.0663963
-0.0636499
-0.0591044
-0.0527693
-0.0448209
-0.0354491
-0.0247635
-0.0128992
-0.00013066
0.0131844
0.0266142
0.0396301
0.0517251
0.0625717
0.0720362
0.0800868
0.0867505
0.0921202
0.0963262
0.099476
0.10172
0.10344
0.104991
0.106449
0.1078
0.109076
0.110455
0.112132
0.114187
0.116658
0.119458
0.122106
0.124092
0.125244
0.125521
0.125284
0.126066
0.129468
0.136061
0.146082
0.159217
0.17344
0.37525
0.382805
0.389778
0.395344
0.398643
0.399542
0.398152
0.39477
0.390225
0.385349
0.380443
0.375638
0.370876
0.365504
0.358916
0.351198
0.342679
0.333543
0.323431
0.311975
0.29933
0.285807
0.271607
0.256592
0.240559
0.223501
0.205397
0.186328
0.166963
0.1479
0.129006
0.109933
0.0906087
0.0718093
0.0543367
0.0382001
0.0231745
0.00907605
-0.00421705
-0.0167834
-0.0286747
-0.0399181
-0.0504651
-0.0600885
-0.0685498
-0.0757685
-0.0817284
-0.0864331
-0.0898882
-0.0921075
-0.093115
-0.0929132
-0.0914058
-0.0882744
-0.0832316
-0.0762723
-0.0675366
-0.0571892
-0.045337
-0.0321306
-0.0178765
-0.00299243
0.0120122
0.0265543
0.0400692
0.0521431
0.0625792
0.0713286
0.0784067
0.0839244
0.0880872
0.0910808
0.0931173
0.0946368
0.0960365
0.097398
0.0987001
0.099967
0.101387
0.103164
0.105374
0.108054
0.111106
0.114019
0.116254
0.117634
0.118119
0.118073
0.11904
0.122636
0.129444
0.139717
0.153149
0.167685
0.370544
0.378055
0.384953
0.390404
0.393531
0.394193
0.392497
0.388749
0.383805
0.37852
0.373199
0.367968
0.362776
0.356998
0.350059
0.342052
0.3333
0.323962
0.313638
0.301916
0.288924
0.274959
0.260223
0.244595
0.227884
0.210077
0.191145
0.171203
0.151004
0.131243
0.111844
0.0924671
0.0729927
0.0540814
0.0364235
0.0199902
0.00457053
-0.00999195
-0.0237939
-0.0368958
-0.0493391
-0.0611463
-0.072268
-0.082478
-0.0915408
-0.0993803
-0.105978
-0.111315
-0.115343
-0.11802
-0.11934
-0.119294
-0.117777
-0.114464
-0.109054
-0.101526
-0.0920012
-0.0806251
-0.067489
-0.0527449
-0.0367379
-0.0199665
-0.00304572
0.0133681
0.0286302
0.042187
0.0537112
0.0631228
0.0704675
0.0759309
0.0798475
0.0825314
0.0842773
0.0855601
0.0867878
0.0880467
0.0893198
0.0906289
0.0921476
0.0940656
0.0964515
0.0993371
0.102619
0.105774
0.108254
0.109875
0.110599
0.110787
0.11198
0.115794
0.122818
0.133319
0.146994
0.161787
0.365726
0.373185
0.379998
0.385316
0.388246
0.388631
0.386569
0.382371
0.376934
0.371149
0.365311
0.359519
0.353718
0.347343
0.339882
0.33142
0.322236
0.312456
0.301678
0.289485
0.275961
0.261343
0.245819
0.22936
0.211874
0.193351
0.173743
0.153168
0.132407
0.1122
0.0925401
0.0731548
0.0539057
0.0352371
0.0176228
0.00101238
-0.0147486
-0.029763
-0.0440858
-0.0577495
-0.0707833
-0.0832054
-0.0949636
-0.105825
-0.115548
-0.124054
-0.131321
-0.137311
-0.141942
-0.145139
-0.146883
-0.147164
-0.145863
-0.142584
-0.136958
-0.128943
-0.118658
-0.106233
-0.0917109
-0.0752029
-0.0570903
-0.0379685
-0.0185645
0.000299652
0.017802
0.0331985
0.0459312
0.0558567
0.0631613
0.0682169
0.0715462
0.0736781
0.0750117
0.0760096
0.0770441
0.0781971
0.0794757
0.0809052
0.0826092
0.0847262
0.0873165
0.0904142
0.093915
0.0973009
0.100027
0.101911
0.102913
0.103391
0.104862
0.108921
0.116164
0.126874
0.140761
0.155773
0.360831
0.368233
0.374961
0.380142
0.382857
0.382934
0.380449
0.375704
0.36967
0.363302
0.356865
0.350391
0.343793
0.336628
0.328498
0.319451
0.309684
0.299267
0.287842
0.275031
0.260845
0.24541
0.228856
0.211354
0.193019
0.173816
0.153647
0.132617
0.111486
0.0910105
0.0712737
0.0521436
0.033537
0.0155096
-0.0018556
-0.0185624
-0.0346433
-0.0501219
-0.0649954
-0.0792588
-0.0929296
-0.106025
-0.118489
-0.130076
-0.140528
-0.149766
-0.157766
-0.164479
-0.169792
-0.173603
-0.175894
-0.176676
-0.175829
-0.172817
-0.167133
-0.15873
-0.147752
-0.134315
-0.11835
-0.0998493
-0.0792212
-0.0571858
-0.0345633
-0.0124949
0.0078702
0.0255649
0.0396153
0.0497721
0.056569
0.060732
0.063013
0.0643001
0.06511
0.0658051
0.0666509
0.0677099
0.069044
0.0706987
0.0726958
0.0750756
0.0779043
0.0812292
0.0849479
0.0885614
0.0915439
0.0937134
0.0950344
0.0958663
0.0976734
0.102004
0.109468
0.120373
0.13445
0.149658
0.355842
0.363182
0.369817
0.374852
0.377342
0.377096
0.374171
0.368861
0.362206
0.355229
0.34816
0.340966
0.333529
0.325525
0.316673
0.30698
0.296567
0.28545
0.27332
0.259846
0.244971
0.22871
0.211138
0.192625
0.173494
0.153684
0.133047
0.111662
0.0902618
0.0696009
0.0498466
0.0310051
0.013052
-0.00433884
-0.0214691
-0.0382922
-0.0547174
-0.0706899
-0.0861498
-0.101056
-0.115414
-0.12924
-0.142476
-0.154858
-0.166114
-0.176164
-0.184981
-0.192509
-0.198604
-0.203138
-0.206097
-0.207514
-0.207259
-0.204651
-0.199031
-0.190347
-0.178766
-0.164378
-0.146949
-0.12629
-0.102815
-0.0773687
-0.0508844
-0.0249585
-0.00121469
0.0190816
0.034444
0.0445071
0.050331
0.0531726
0.054073
0.0543308
0.0545789
0.0550194
0.0557555
0.0567986
0.0582465
0.0601597
0.0624719
0.0651396
0.0682358
0.071817
0.0757799
0.0796449
0.0829068
0.0853847
0.0870474
0.0882523
0.0904087
0.0950151
0.102692
0.113775
0.128018
0.143396
0.350746
0.358016
0.364542
0.369418
0.371676
0.371114
0.367774
0.361955
0.354739
0.34718
0.339497
0.331629
0.323452
0.314704
0.305167
0.294837
0.283795
0.272032
0.259263
0.245176
0.229682
0.212743
0.194419
0.175172
0.155426
0.135127
0.114102
0.0924139
0.0707717
0.0499295
0.030097
0.0113444
-0.00635763
-0.0235277
-0.0406619
-0.0577234
-0.0745627
-0.091074
-0.10716
-0.122755
-0.137854
-0.152469
-0.166536
-0.17978
-0.19192
-0.202874
-0.212615
-0.221072
-0.22807
-0.233454
-0.237206
-0.239364
-0.239766
-0.237623
-0.232166
-0.223313
-0.211239
-0.196003
-0.177153
-0.154253
-0.127695
-0.0984421
-0.0675125
-0.0371371
-0.00961006
0.0134794
0.030051
0.0395722
0.0438988
0.0450669
0.0443866
0.0435726
0.0433526
0.0436987
0.0445029
0.0456901
0.0473244
0.0494512
0.0520063
0.0549483
0.0583376
0.0622165
0.066474
0.0706377
0.0742134
0.0770232
0.0790349
0.0805942
0.083074
0.0879402
0.0958149
0.107051