# vtk DataFile Version 3.0
Gravity inversion using rectangular prisms
ASCII
DATASET UNSTRUCTURED_GRID

POINTS	10490	double
5.06226e+06	403720	-305
5.06226e+06	403715	-290
5.06226e+06	403715	-280
5.06226e+06	403725	-290
5.06226e+06	403725	-280
5.06227e+06	403715	-290
5.06227e+06	403715	-280
5.06227e+06	403725	-290
5.06227e+06	403725	-280
5.06226e+06	403720	-265
5.06226e+06	403720	-245
5.06226e+06	403720	-225
5.06226e+06	403720	-205
5.06226e+06	403720	-185
5.06226e+06	403720	-165
5.06226e+06	403720	-145
5.06226e+06	403720	-125
5.06226e+06	403720	-105
5.06226e+06	403720	-85
5.06226e+06	403740	-305
5.06226e+06	403735	-290
5.06226e+06	403735	-280
5.06226e+06	403745	-290
5.06226e+06	403745	-280
5.06227e+06	403735	-290
5.06227e+06	403735	-280
5.06227e+06	403745	-290
5.06227e+06	403745	-280
5.06226e+06	403740	-265
5.06226e+06	403740	-245
5.06226e+06	403740	-225
5.06226e+06	403740	-205
5.06226e+06	403740	-185
5.06226e+06	403740	-165
5.06226e+06	403740	-145
5.06226e+06	403740	-125
5.06226e+06	403740	-105
5.06226e+06	403740	-85
5.06226e+06	403755	-310
5.06226e+06	403755	-300
5.06226e+06	403765	-310
5.06226e+06	403765	-300
5.06227e+06	403755	-310
5.06227e+06	403755	-300
5.06227e+06	403765	-310
5.06227e+06	403765	-300
5.06226e+06	403755	-290
5.06226e+06	403755	-280
5.06226e+06	403765	-290
5.06226e+06	403765	-280
5.06227e+06	403755	-290
5.06227e+06	403755	-280
5.06227e+06	403765	-290
5.06227e+06	403765	-280
5.06226e+06	403760	-265
5.06226e+06	403760	-245
5.06226e+06	403760	-225
5.06226e+06	403760	-205
5.06226e+06	403760	-185
5.06226e+06	403760	-165
5.06226e+06	403760	-145
5.06226e+06	403760	-125
5.06226e+06	403760	-105
5.06226e+06	403760	-85
5.06226e+06	403775	-310
5.06226e+06	403775	-300
5.06226e+06	403785	-310
5.06226e+06	403785	-300
5.06227e+06	403775	-310
5.06227e+06	403775	-300
5.06227e+06	403785	-310
5.06227e+06	403785	-300
5.06226e+06	403775	-290
5.06226e+06	403775	-280
5.06226e+06	403785	-290
5.06226e+06	403785	-280
5.06227e+06	403775	-290
5.06227e+06	403775	-280
5.06227e+06	403785	-290
5.06227e+06	403785	-280
5.06226e+06	403780	-265
5.06226e+06	403780	-245
5.06226e+06	403780	-225
5.06226e+06	403780	-205
5.06226e+06	403780	-185
5.06226e+06	403780	-165
5.06226e+06	403780	-145
5.06226e+06	403780	-125
5.06226e+06	403780	-105
5.06226e+06	403780	-85
5.06226e+06	403800	-305
5.06226e+06	403795	-290
5.06226e+06	403795	-280
5.06226e+06	403805	-290
5.06226e+06	403805	-280
5.06227e+06	403795	-290
5.06227e+06	403795	-280
5.06227e+06	403805	-290
5.06227e+06	403805	-280
5.06226e+06	403800	-265
5.06226e+06	403800	-245
5.06226e+06	403795	-230
5.06226e+06	403795	-220
5.06226e+06	403805	-230
5.06226e+06	403805	-220
5.06227e+06	403795	-230
5.06227e+06	403795	-220
5.06227e+06	403805	-230
5.06227e+06	403805	-220
5.06226e+06	403800	-205
5.06226e+06	403800	-185
5.06226e+06	403800	-165
5.06226e+06	403800	-145
5.06226e+06	403800	-125
5.06226e+06	403800	-105
5.06226e+06	403800	-85
5.06226e+06	403820	-305
5.06226e+06	403820	-285
5.06226e+06	403820	-265
5.06226e+06	403820	-245
5.06226e+06	403815	-230
5.06226e+06	403815	-220
5.06226e+06	403825	-230
5.06226e+06	403825	-220
5.06227e+06	403815	-230
5.06227e+06	403815	-220
5.06227e+06	403825	-230
5.06227e+06	403825	-220
5.06226e+06	403820	-205
5.06226e+06	403820	-185
5.06226e+06	403820	-165
5.06226e+06	403820	-145
5.06226e+06	403820	-125
5.06226e+06	403820	-105
5.06226e+06	403820	-85
5.06226e+06	403835	-310
5.06226e+06	403835	-300
5.06226e+06	403845	-310
5.06226e+06	403845	-300
5.06227e+06	403835	-310
5.06227e+06	403835	-300
5.06227e+06	403845	-310
5.06227e+06	403845	-300
5.06226e+06	403835	-290
5.06226e+06	403835	-280
5.06226e+06	403845	-290
5.06226e+06	403845	-280
5.06227e+06	403835	-290
5.06227e+06	403835	-280
5.06227e+06	403845	-290
5.06227e+06	403845	-280
5.06226e+06	403840	-265
5.06226e+06	403840	-245
5.06226e+06	403835	-230
5.06226e+06	403835	-220
5.06226e+06	403845	-230
5.06226e+06	403845	-220
5.06227e+06	403835	-230
5.06227e+06	403835	-220
5.06227e+06	403845	-230
5.06227e+06	403845	-220
5.06226e+06	403840	-205
5.06226e+06	403840	-185
5.06226e+06	403840	-165
5.06226e+06	403840	-145
5.06226e+06	403840	-125
5.06226e+06	403840	-105
5.06226e+06	403840	-85
5.06226e+06	403855	-310
5.06226e+06	403855	-300
5.06226e+06	403865	-310
5.06226e+06	403865	-300
5.06227e+06	403855	-310
5.06227e+06	403855	-300
5.06227e+06	403865	-310
5.06227e+06	403865	-300
5.06226e+06	403855	-290
5.06226e+06	403855	-280
5.06226e+06	403865	-290
5.06226e+06	403865	-280
5.06227e+06	403855	-290
5.06227e+06	403855	-280
5.06227e+06	403865	-290
5.06227e+06	403865	-280
5.06226e+06	403860	-265
5.06226e+06	403855	-250
5.06226e+06	403855	-240
5.06226e+06	403865	-250
5.06226e+06	403865	-240
5.06227e+06	403855	-250
5.06227e+06	403855	-240
5.06227e+06	403865	-250
5.06227e+06	403865	-240
5.06226e+06	403855	-230
5.06226e+06	403855	-220
5.06226e+06	403865	-230
5.06226e+06	403865	-220
5.06227e+06	403855	-230
5.06227e+06	403855	-220
5.06227e+06	403865	-230
5.06227e+06	403865	-220
5.06226e+06	403860	-205
5.06226e+06	403860	-185
5.06226e+06	403860	-165
5.06226e+06	403860	-145
5.06226e+06	403860	-125
5.06226e+06	403860	-105
5.06226e+06	403860	-85
5.06226e+06	403875	-310
5.06226e+06	403875	-300
5.06226e+06	403885	-310
5.06226e+06	403885	-300
5.06227e+06	403875	-310
5.06227e+06	403875	-300
5.06227e+06	403885	-310
5.06227e+06	403885	-300
5.06226e+06	403875	-290
5.06226e+06	403875	-280
5.06226e+06	403885	-290
5.06226e+06	403885	-280
5.06227e+06	403875	-290
5.06227e+06	403875	-280
5.06227e+06	403885	-290
5.06227e+06	403885	-280
5.06226e+06	403880	-265
5.06226e+06	403875	-250
5.06226e+06	403875	-240
5.06226e+06	403885	-250
5.06226e+06	403885	-240
5.06227e+06	403875	-250
5.06227e+06	403875	-240
5.06227e+06	403885	-250
5.06227e+06	403885	-240
5.06226e+06	403875	-230
5.06226e+06	403875	-220
5.06226e+06	403885	-230
5.06226e+06	403885	-220
5.06227e+06	403875	-230
5.06227e+06	403875	-220
5.06227e+06	403885	-230
5.06227e+06	403885	-220
5.06226e+06	403880	-205
5.06226e+06	403880	-185
5.06226e+06	403880	-165
5.06226e+06	403880	-145
5.06226e+06	403880	-125
5.06226e+06	403880	-105
5.06226e+06	403880	-85
5.06226e+06	403895	-310
5.06226e+06	403895	-300
5.06226e+06	403905	-310
5.06226e+06	403905	-300
5.06227e+06	403895	-310
5.06227e+06	403895	-300
5.06227e+06	403905	-310
5.06227e+06	403905	-300
5.06226e+06	403895	-290
5.06226e+06	403895	-280
5.06226e+06	403905	-290
5.06226e+06	403905	-280
5.06227e+06	403895	-290
5.06227e+06	403895	-280
5.06227e+06	403905	-290
5.06227e+06	403905	-280
5.06226e+06	403900	-265
5.06226e+06	403900	-245
5.06226e+06	403895	-230
5.06226e+06	403895	-220
5.06226e+06	403905	-230
5.06226e+06	403905	-220
5.06227e+06	403895	-230
5.06227e+06	403895	-220
5.06227e+06	403905	-230
5.06227e+06	403905	-220
5.06226e+06	403900	-205
5.06226e+06	403900	-185
5.06226e+06	403900	-165
5.06226e+06	403900	-145
5.06226e+06	403900	-125
5.06226e+06	403900	-105
5.06226e+06	403900	-85
5.06226e+06	403920	-305
5.06226e+06	403915	-290
5.06226e+06	403915	-280
5.06226e+06	403925	-290
5.06226e+06	403925	-280
5.06227e+06	403915	-290
5.06227e+06	403915	-280
5.06227e+06	403925	-290
5.06227e+06	403925	-280
5.06226e+06	403920	-265
5.06226e+06	403920	-245
5.06226e+06	403920	-225
5.06226e+06	403920	-205
5.06226e+06	403920	-185
5.06226e+06	403920	-165
5.06226e+06	403920	-145
5.06226e+06	403920	-125
5.06226e+06	403920	-105
5.06226e+06	403920	-85
5.06226e+06	403940	-305
5.06226e+06	403940	-285
5.06226e+06	403940	-265
5.06226e+06	403940	-245
5.06226e+06	403940	-225
5.06226e+06	403940	-205
5.06226e+06	403940	-185
5.06226e+06	403940	-165
5.06226e+06	403940	-145
5.06226e+06	403940	-125
5.06226e+06	403940	-105
5.06226e+06	403940	-85
5.06226e+06	403960	-305
5.06226e+06	403960	-285
5.06226e+06	403960	-265
5.06226e+06	403960	-245
5.06226e+06	403960	-225
5.06226e+06	403960	-205
5.06226e+06	403960	-185
5.06226e+06	403960	-165
5.06226e+06	403960	-145
5.06226e+06	403960	-125
5.06226e+06	403960	-105
5.06226e+06	403960	-85
5.06228e+06	403720	-305
5.06228e+06	403715	-290
5.06228e+06	403715	-280
5.06228e+06	403725	-290
5.06228e+06	403725	-280
5.06229e+06	403715	-290
5.06229e+06	403715	-280
5.06229e+06	403725	-290
5.06229e+06	403725	-280
5.06228e+06	403720	-265
5.06228e+06	403720	-245
5.06228e+06	403720	-225
5.06228e+06	403720	-205
5.06228e+06	403720	-185
5.06228e+06	403720	-165
5.06228e+06	403720	-145
5.06228e+06	403720	-125
5.06228e+06	403720	-105
5.06228e+06	403720	-85
5.06228e+06	403740	-305
5.06228e+06	403735	-290
5.06228e+06	403735	-280
5.06228e+06	403745	-290
5.06228e+06	403745	-280
5.06229e+06	403735	-290
5.06229e+06	403735	-280
5.06229e+06	403745	-290
5.06229e+06	403745	-280
5.06228e+06	403740	-265
5.06228e+06	403740	-245
5.06228e+06	403740	-225
5.06228e+06	403740	-205
5.06228e+06	403740	-185
5.06228e+06	403740	-165
5.06228e+06	403740	-145
5.06228e+06	403740	-125
5.06228e+06	403740	-105
5.06228e+06	403740	-85
5.06228e+06	403755	-310
5.06228e+06	403755	-300
5.06228e+06	403765	-310
5.06228e+06	403765	-300
5.06229e+06	403755	-310
5.06229e+06	403755	-300
5.06229e+06	403765	-310
5.06229e+06	403765	-300
5.06228e+06	403755	-290
5.06228e+06	403755	-280
5.06228e+06	403765	-290
5.06228e+06	403765	-280
5.06229e+06	403755	-290
5.06229e+06	403755	-280
5.06229e+06	403765	-290
5.06229e+06	403765	-280
5.06228e+06	403760	-265
5.06228e+06	403760	-245
5.06228e+06	403755	-230
5.06228e+06	403755	-220
5.06228e+06	403765	-230
5.06228e+06	403765	-220
5.06229e+06	403755	-230
5.06229e+06	403755	-220
5.06229e+06	403765	-230
5.06229e+06	403765	-220
5.06228e+06	403760	-205
5.06228e+06	403760	-185
5.06228e+06	403760	-165
5.06228e+06	403760	-145
5.06228e+06	403760	-125
5.06228e+06	403760	-105
5.06228e+06	403760	-85
5.06228e+06	403775	-310
5.06228e+06	403775	-300
5.06228e+06	403785	-310
5.06228e+06	403785	-300
5.06229e+06	403775	-310
5.06229e+06	403775	-300
5.06229e+06	403785	-310
5.06229e+06	403785	-300
5.06228e+06	403775	-290
5.06228e+06	403775	-280
5.06228e+06	403785	-290
5.06228e+06	403785	-280
5.06229e+06	403775	-290
5.06229e+06	403775	-280
5.06229e+06	403785	-290
5.06229e+06	403785	-280
5.06228e+06	403780	-265
[...]
CELL_DATA	10490
SCALARS model double 1
LOOKUP_TABLE table0
59.1643
268.101
358.136
268.553
358.125
266.144
357.978
267.801
359.332
458.224
471.83
364.599
253.352
202.707
220.761
274.284
322.113
346.449
363.798
62.9075
269.234
357.652
268.298
354.896
271.088
361.526
273.18
361.858
463.678
469.278
353.75
237.734
186.164
203.193
257.343
307.206
334.307
352.495
28.2868
121.798
27.4257
117.854
24.5061
120.031
19.7072
113.314
263.808
347.874
255.218
336.176
269.934
356.838
260.399
345.238
451.402
445.737
320.876
197.561
147.207
165.751
223.287
278.178
311.092
331.252
26.3674
111.288
24.5602
99.8284
18.7049
106.821
20.168
98.5064
244.896
321.188
234.832
306.059
249.505
329.127
240.22
312.616
413.646
395.466
259.379
135.294
89.0256
113.349
177.628
240.15
281.072
304.031
15.4335
225.931
293.864
221.529
289.218
232.277
299.274
228.685
293.842
377.938
337.23
220.031
215.282
189.801
184.848
213.665
207.756
181.446
175.331
70.1188
24.9397
56.4957
129.303
200.44
249.913
275.822
11.3385
281.359
363.453
299.759
164.152
157.501
147.199
140.408
153.645
145.793
134.934
126.877
17.1875
-27.1895
8.23654
88.6233
166.766
223.363
251.554
-27.5162
121.273
-18.98
130.265
-47.4941
125.138
-39.2841
129.098
244.143
293.482
259.806
314.884
252.877
299.669
265.712
319.442
368.494
295.587
139.338
131.639
140.196
132.046
126.129
117.095
126.894
117.327
-6.46855
-53.8424
-18.7819
63.5303
145.152
205.88
235.038
-1.21953
147.703
19.5799
167.894
-16.1058
146.688
12.5936
171.482
283.886
342.986
307.479
367.227
289.553
347.478
315.18
372.912
391.985
308.931
298.91
324.327
315.664
300.507
288.436
316.891
306.174
148.269
140.091
160.056
151.486
135.581
125.931
148.485
138.459
0.539284
-51.4019
-20.772
57.3037
138.288
199.568
228.149
37.0539
182.141
49.5202
187.625
34.5723
187.313
47.6041
190.347
320.113
378.786
317.792
374.847
327.338
384.083
320.943
377.035
403.883
335.064
330.244
335.185
339.301
328.609
321.998
329.58
332.303
173.399
165.724
184.794
177.731
163.014
154.016
175.531
167.38
25.5409
-28.6525
-4.01505
67.8908
145.01
203.788
230.51
58.5244
187.322
64.662
183.582
57.2309
187.827
63.5041
182.494
304.184
359.674
285.48
341.082
302.42
357.315
279.13
334.178
377.114
332.724
193.34
188.886
197.159
196.841
185.157
179.932
190.663
189.456
58.8877
3.9492
23.8686
89.4649
161.077
215.589
239.765
120.336
267.531
326.506
255.568
321.815
256.831
316.106
243.451
310.777
345.196
324.894
212.466
91.5796
37.8479
53.9505
114.286
180.732
230.696
252.316
165.326
289.198
354.034
336.371
232.102
120.581
66.3489
79.6087
136.026
198.479
244.727
264.297
178.264
304.346
367.81
346.575
241.106
130.534
75.5684
87.9687
143.306
204.613
249.752
268.668
49.2662
262.332
357.51
267.237
361.965
255.127
354.675
265.444
363.726
455.327
466.832
353.976
236.258
184.557
201.763
256.209
306.172
333.177
351.602
80.3141
278.12
370.544
290.515
378.823
290.7
382.417
325.763
404.411
489.424
476.414
350.079
220.771
166.652
182.452
237.539
289.654
319.678
339.106
21.4982
128.453
5.483
116.308
67.8812
199.917
22.4849
167.76
293.646
379.716
283.033
369.238
346.239
416.545
336.43
409.424
500.195
459.523
339.593
334.191
314.312
309.268
334.761
328.392
308.16
301.906
178.07
121.566
139.76
199.572
257.521
294.036
315.823
4.68178
109.241
16.3124
106.731
24.8188
154.286
53.1463
151.76
269.423
350.271
258.653
329.098
314.554
385.497
290.898
353.895
449.944
399.573
277.52
269.473
239.665
232.134
268.661
258.849
227.66
218.199
103.551
52.3723
78.4227
147.806
215.381
261.005
286.165
43.0817
249.629
311.289
248.594
302.091
270.567
326.105
269.33
312.462
387.929
319.14
200.772
190.663
163.914
153.456
182.279
169.643
137.851
124.503
66.664
62.0269
29.5393
25.4799
39.1986
34.0141
-1.70387
-6.05588
-23.2011
11.3491
92.2077
171.317
226.869
255.618
-0.670726
260.25
299.418
274.117
303.885
286.131
310.644
308.831
315.772
357.356
255.579
131.544
119.565
109.121
96.7748
98.2944
83.7623
69.8601
55.0621
-4.20934
-9.87457
-29.1706
-34.2176
-40.8131
-46.7081
-69.3793
-74.4942
-85.5112
-45.2409
46.0516
134.249
198.049
229.607
-85.0869
159.168
-75.9036
144.669
-118.11
252.895
-109.163
209.659
280.286
311.404
285.802
327.323
320.568
315.123
313.189
324.438
355.502
257.307
242.445
263.098
247.178
214.4
194.837
221.082
199.893
98.1591
84.8242
98.5851
84.4297
55.1421
39.4062
54.7028
37.68
-44.436
-50.1497
-49.2488
-55.042
-87.4059
-93.1449
-92.869
-98.705
-117.429
-75.7044
18.4743
111.106
179.574
212.34
-38.2366
156.756
5.34017
188.063
-31.4589
206.233
37.4078
237.676
306.201
354.321
333.893
381.546
326.818
351.32
357.677
383.708
387.13
279.531
263.077
299.153
283.298
241.929
219.073
267.485
244.215
108.421
93.8405
123.619
108.568
66.3172
48.0329
85.3128
65.8163
-44.7122
-50.4845
-33.2652
-39.3372
-87.1423
-93.0102
-73.4644
-79.8075
-111.219
-74.2152
13.4463
105.058
173.837
205.886
32.3382
202.454
42.8597
194.838
52.9209
236.981
38.3217
199.383
342.805
391.809
325.947
378.883
361.738
395.844
328.785
377.526
406.516
313.383
301.782
315.192
313.5
288.227
268.773
296.552
287.497
140.704
126.687
155.778
143.123
106.903
87.8562
126.392
108.898
-18.0115
-23.0096
-5.58285
-10.4725
-54.3274
-59.7118
-35.7983
-41.2659
-80.1853
-50.6505
28.7602
114.794
180.101
209.796
52.8667
185.977
57.841
174.821
43.6439
177.264
50.7466
166.879
296.857
350.808
264.705
319.32
284.463
339.809
240.902
297.638
361.395
309.411
167.827
159.064
176.627
170.881
142.152
129.231
154.293
145.628
22.6966
-36.3219
-12.3205
58.1462
135.427
194.972
221.406
71.8263
232.984
294.198
214.415
285.733
196.233
262.851
169.929
251.891
305.553
299.053
184.082
181.6
188.741
190.367
163.667
160.416
170.922
172.397
65.8937
10.4243
27.5735
90.2672
159.949
213.534
236.647
178.075
260.801
329.787
321.969
216.587
105.528
48.5968
60.9804
117.919
182.03
230.74
251.134
207.29
307.25
361.11
340.742
230.134
119.184
60.9105
71.8903
127.232
189.736
236.957
256.458
31.4147
240.909
346.117
256.421
359.808
217.516
329.259
234.359
345.797
429.578
444.494
331.949
200.152
148.112
165.401
222.465
276.814
309.009
329.5
39.5635
126.144
144.46
244.579
18.0334
123.249
99.255
245.676
298.425
389.857
363.408
428.448
285.073
384.344
369.494
436.948
506.942
469.962
356.847
352.254
347.334
341.843
345.802
341.465
335.896
330.274
185.194
125.645
141.574
200.251
257.371
293.158
314.991
229.081
320.783
154.796
281.815
195.958
341.211
113.808
310.677
409.423
455.882
405.921
455.708
437.384
479.591
449.134
490.863
555.412
475.372
464.385
453.979
440.953
470.659
457.897
448.994
433.16
325
315.514
295.151
284.733
311.304
300.436
278.962
266.31
181.036
176.132
148.799
144.354
159.828
155.107
125.415
121.017
68.154
87.4777
154.339
219.729
263.367
288.277
170.549
251.562
189.668
191.303
127.167
273.411
-4.90386
119.22
370.425
427.033
312.279
379.733
414.98
465.256
330.56
408.001
474.528
417.872
399.145
368.883
349.012
407.335
384.007
349.123
322.409
252.301
237.369
205.526
190.38
231.373
213.117
174.845
154.8
101.383
93.7013
53.3016
46.8152
73.1971
65.167
20.9043
14.6286
-18.273
10.9375
89.8983
170.125
225.22
254.522
165.862
70.9018
197.129
102.554
-188.72
-30.7754
21.1033
33.8925
260.262
333.55
247.159
306.792
243.567
340.467
206.12
290.285
386.851
388.277
323.535
313.876
368.8
363.079
288.538
274.735
313.629
292.247
251.275
227.812
277.179
248.065
199.109
169
152.087
134.604
97.1632
78.802
108.942
86.4874
39.9994
17.1487
1.90679
-6.81532
-46.8024
-54.4064
-38.245
-45.9483
-96.3119
-102.392
-53.3311
-54.8204
-93.4789
-93.4706
-95.639
-96.1572
-139.861
-138.478
-71.136
20.3008
117.674
186.023
220.039
132.839
231.047
286.634
270.272
257.488
238.133
222.203
202.971
173.431
152.278
201.958
178.31
162.565
138.439
128.607
99.2421
75.1543
46.6729
47.4912
28.6798
10.4197
-8.2334
-23.096
-44.8866
-71.516
-92.038
-92.5175
-101.015
-126.711
-134.263
-150.395
-156.287
-191.919
-196.335
-135.063
-135.871
-165.153
-164.424
-187.556
-187.034
-221.47
-219.143
-91.8796
-90.5987
-112.395
-110.272
-132.206
-129.034
-154.545
-150.299
-35.3684
74.3738
153.319
191.074
102.119
291.936
271.917
274.659
277.539
134.445
167.638
126.677
177.041
248.336
232.391
261.206
249.866
150.443
132.514
163.042
148.768
146.549
120.963
153.973
125.62
49.3597
20.1761
55.513
22.3837
-9.73676
-29.2879
-11.6291
-33.2284
-99.0425
-119.928
-102.987
-126.52
-148.216
-156.131
-154.925
-163.105
-218.18
-222.586
-226.777
-231.71
-187.003
-187.119
-199.981
-202.06
-246.475
-244.997
-255.801
-256.296
-133.815
-132.736
-145.151
-144.832
-177.916
-174.696
-187.033
-184.715
-67.641
48.3577
133.087
172.492
122.203
239.24
151.194
281.891
-29.5587
52.4337
62.2161
181.141
297.916
313.049
350.355
362.939
189.872
233.957
294.48
320.328
296.138
285.42
347.532
336.297
215.614
199.281
292.653
269.709
180.659
148.404
216.702
181.351
90.6661
50.302
142.674
94.7511
2.5286
-21.8766
27.2156
0.00121858
-85.3423
-113.429
-52.6643
-85.7663
-148.103
-156.684
-131.158
-140.617
-218.842
-224.943
-198.032
-206.108
-223.714
-171.756
-71.4101
43.5564
128.205
166.684
116.332
266.775
37.906
195.555
41.9487
220.245
8.99135
180.341
364.798
389.29
325.33
374.149
353.741
382.264
333.481
384.534
377.488
370.806
379.191
388.949
355.302
331.729
374.42
366.253
249.51
215.673
269.635
243.48
193.943
143.665
229.912
186.243
55.8913
27.6406
82.4814
55.4551
-13.7128
-49.9655
23.4278
-12.518
-106.971
-115.839
-81.0238
-89.5833
-168.093
-176.873
-134.659
-143.548
-180.961
-141.653
-48.744
58.555
137.789
173.092
17.6151
152.771
18.5947
143.227
-3.16177
139.427
-2.77818
122.243
268.51
329.947
213.751
276.206
271.615
336.929
204.168
269.22
350.679
275.946
259.948
269.423
268.364
245.461
216.481
245.28
234.763
104.369
81.839
121.457
105.693
54.6311
23.4801
79.4987
57.321
-53.3146
-58.8624
-32.4379
-37.5334
-100.714
-106.779
-71.7603
-77.4628
-118.622
-83.1382
-2.43388
88.0211
157.714
188.534
17.6184
143.248
-129.909
72.18
24.6571
107.627
-155.862
9.99426
155.888
228.912
115.595
210.796
133.403
207.15
81.6816
181.882
260.87
261.767
134.461
127.635
143.293
142.433
98.9761
88.5215
114.646
111.557
11.495
-43.7092
-24.6267
43.8962
121.017
181.962
208.154
203.323
221.205
301.638
302.888
177.209
74.2097
11.5097
22.7757
82.0519
150.371
204.337
226.677
256.727
326.484
356.79
332.901
202.3
94.1422
28.939
38.039
94.7385
160.578
212.392
233.445
-7.28168
45.6147
-12.7648
47.7234
-19.1919
17.8648
-24.8322
19.0469
187.171
304.014
202.483
321.579
155.239
273.779
170.017
291.946
360.643
395.1
288.318
148.668
95.8174
115.47
177.165
237.86
277.151
300.426
-5.13083
86.3976
64.2581
207.691
-15.5954
59.6912
69.951
196.484
255.177
365.172
349.184
427.131
226.14
339.035
328.056
406.381
468.869
434.795
325.969
320.158
316.401
308.536
305.698
300.355
296.27
288.082
134.446
66.5379
84.7544
149.767
214.727
258.44
283.509
169.996
314.575
104.534
310.249
186.537
310.001
101.51
293.644
431.604
481.261
464.087
504.565
414.131
464.285
446.468
489.273
546.263
457.704
441.798
435.755
415.342
437.207
420.414
412.441
389.535
290.994
276.61
255.79
238.393
269.232
253.044
228.156
206.752
129.893
122.866
92.0234
84.8306
101.217
94.6027
60.5912
53.9453
-4.01446
16.5881
91.9745
169.982
223.645
252.703
201.367
348.406
182.715
296.54
200.731
356.468
288.23
402.619
462.761
490.15
410.39
435.876
459.789
477.433
435.715
423.226
512.413
485.862
440.502
412.448
488.531
462.543
409.922
379.063
388.128
358.393
317.489
281.9
357.364
322.991
272.783
230.978
202.167
178.618
133.523
106.945
165.538
137.131
83.5426
52.0074
36.1774
25.0411
-22.0955
-30.9252
-0.0740324
-10.7303
-68.3636
-77.6662
-37.9013
-39.4916
-88.2825
-88.5296
-75.2077
-75.7746
-129.917
-128.666
-14.2699
-14.0115
-51.5777
-49.4413
-45.3385
-43.5964
-84.9752
-81.1716
12.4473
109.639
179.336
214.069
172.722
221.862
256.238
179.515
337.491
351.642
224.223
190.353
321.522
350.504
224.95
254.953
343.684
322.978
205.462
196.698
345.422
321.71
239.236
214.95
297.418
265.356
164.429
132.288
227.513
189.907
127.991
92.1048
163.127
120.523
39.417
1.77549
52.7092
25.2453
-32.3863
-57.8511
-13.0043
-43.352
-115.42
-140.891
-88.802
-97.005
-157.215
-163.42
-146.497
-155.172
-227.245
-233.704
-148.962
-151.802
-202.135
-202.595
-200.135
-201.006
-261.944
-259.564
-108.127
-107.202
-148.284
-144.841
-146.502
-143.918
-190.672
-185.096
-19.5809
-18.217
-44.0912
-41.3954
-47.8369
-45.0115
-74.0401
-69.635
44.1975
134.054
174.907
97.1686
146.526
168.765
110.097
96.8501
109.354
81.1298
83.2147
-9.13848
140.582
114.863
63.6317
37.8122
33.5412
0.606221
-76.4236
-108.447
33.6444
1.83383
-40.6034
-68.3274
-81.8995
-111.099
-181.845
-202.167
-111.371
-133.157
-173.585
-192.043
-212.061
-230.805
-290.13
-302.849
-220.912
-225.502
-271.054
-273.586
-301.998
-305.605
-361.951
-362.844
-256.448
-257.682
-295.766
-294.95
-323.628
-321.7
-368.956
-364.462
-192.037
-190.322
-220.086
-216.903
-241.859
-237.337
-274.336
-267.749
-84.9262
-83.4616
-105.565
-102.672
-117.987
-114.724
-140.131
-135.266
-7.38581
96.6886
142.441
68.0866
-18.4271
155.458
-58.1881
72.7079
111.124
67.3311
32.9215
63.517
56.0274
43.9526
59.689
22.1381
-78.1037
-27.1683
-92.0178
20.8732
-0.945064
29.6514
11.2754
-147.167
-172.703
-148.399
-169.645
-80.6998
-107.154
-77.5209
-108.577
-241.096
-256.327
-244.441
-263.57
-210.411
-228.044
-217.284
-237.8
-338.243
-348.325
-349.494
-362.186
-303.138
-305.28
-314.197
-317.423
-400.964
-401.045
-415.038
-416.427
-324.407
-323.858
-336.537
-335.599
-401.633
-397.113
-415.038
-409.803
-246.071
-243.528
-257.341
-254.192
-303.037
-296.912
-314.991
-308.144
-129.582
-127.337
-138.442
-135.613
-165.942
-161.681
-175.292
-170.4
-37.3179
74.3528
122.324
45.1884
15.4624
19.1712
132.693
36.7783
42.9644
22.3934
209.403
120.697
139.018
274.133
279.6
49.7976
4.57743
294.732
224.188
101.495
76.9861
220.048
177.035
-61.96
-89.126
107.744
46.823
-31.8498
-74.3731
41.5332
-15.3949
-188.944
-223.725
-91.3968
-149.023
-195.629
-222.481
-153.079
-187.709
-324.335
-344.92
-271.306
-302.636
-305.145
-310.992
-279.909
-289.392
-404.764
-409.655
-374.395
-384.123
-335.63
-333.108
-319.517
-317.606
-411.211
-405.718
-391.811
-387.455
-261.39
-257.11
-253.377
-249.494
-315.987
-309.058
-306.061
-299.904
-142.062
-139.4
-138.12
-135.784
-178.702
-173.998
-174.117
-169.824
-40.932
70.5255
117.339
36.573
244.055
13.248
231.809
33.0353
160.352
21.9543
159.806
1.37827
253.712
0.815847
271.603
287.22
306.277
338.73
390.844
425.044
447.491
494.857
540.037
32.699
317.241
392.295
262.967
345.458
457.026
531.34
355.617
450.085
402.956
400.226
405.859
430.723
541.543
430.376
562.866
503.011
331.959
273.148
383.115
332.66
290.796
184.523
382.203
280.798
118.042
51.9645
175.805
112.516
15.5932
-60.4357
101.143
21.589
-100.915
-141.587
-49.8859
-92.1834
-204.146
-244.967
-136.585
-181.895
-243.269
-255.417
-201.23
-214.07
-329.734
-343.465
-277.568
-292.668
-291.753
-289.713
-257.958
-257.851
-357.965
-353.655
-319.177
-317.224
-234.038
-230.063
-218.341
-217.425
-283.346
-277.26
-261.833
-259.218
-123.94
-121.335
-115.016
-113.798
-158.172
-153.695
-146.029
-143.291
-19.5363
84.1643
126.801
0.0359642
166.73
-5.38333
125.954
-13.4854
212.717
-38.0422
126.229
320.287
374.476
224.271
284.469
411.737
431.423
263.259
312.824
370.587
340.199
318.525
320.869
377.115
314.051
321.712
304.054
206.138
157.803
214.366
186.967
151.724
85.5514
172.827
130.367
-6.21016
-44.3856
28.9642
0.147422
-77.4255
-120.352
-29.207
-63.4906
-158.28
-168.453
-119.501
-128.206
-223.463
-236.102
-173.045
-183.152
-220.114
-220.093
-189.297
-192.683
-274.765
-273.098
-236.497
-239.093
-175.189
-82.1141
26.2736
110.285
146.906
32.2635
103.856
-133.446
-11.1112
25.2616
117.811
-150.084
-6.37668
138.173
202.919
79.5846
165.252
160.854
210.81
89.91
157.805
250.108
213.282
204.327
217.518
223.683
179.467
161.754
190.136
190.987
56.8218
39.5409
79.357
69.2307
9.12283
-13.7368
40.0168
25.4275
-81.1127
-86.1738
-51.0067
-56.1113
-127.446
-133.022
-89.716
-95.306
-108.122
-92.9821
-16.7042
70.5278
141.483
171.832
109.863
106.163
225.523
311.01
131.874
98.1844
246.72
317.013
143.342
200.269
270.534
299.604
142.915
185.611
273.642
280.982
286.602
286.294
103.309
96.6811
128.502
124.37
68.4703
59.1748
99.6428
93.5428
34.8037
-37.7379
-28.5571
34.5497
108.978
170.141
195.207
335.507
371.788
357.525
325.745
160.851
60.7708
-14.7852
-7.95193
51.3886
122.228
180.379
203.668
-31.7705
-8.09259
-37.705
-6.15612
-44.3807
-31.7002
-51.4568
-28.5841
126.123
242.17
142.264
261.509
101.364
213.434
120.036
234.655
275.721
329.853
233.979
99.0404
36.2706
59.9434
126.731
194.635
241.753
268.01
-24.9477
41.5658
76.9453
196.708
-36.6201
26.4873
77.0143
199.071
204.35
312.18
313.628
382.424
189.635
289.667
307.343
363.032
402.827
378.952
280.412
272.414
271.913
260.189
256.684
248.871
247.516
234.784
129.696
126.139
109.402
104.92
107.119
104.138
85.313
81.3859
1.24996
22.7772
93.2901
167.652
220.179
248.705
202.282
307.364
74.1825
236.158
215.517
308.973
70.3717
194.702
392.465
436.364
395.558
448.752
378.945
411.828
350.993
408.625
481.324
410.534
390.858
381.284
355.021
385.527
362.342
350.915
320.555
243.345
222.969
195.488
167.959
216.177
192.938
162.02
130.145
71.6258
62.8313
25.9777
17.436
42.7007
34.176
-7.70838
-16.3046
-77.4083
-56.9649
23.3137
115.043
180.418
213.869
97.8127
228.582
135.59
229.671
70.8436
135.738
91.3654
115.999
377.523
421.804
335.503
354.26
298.48
363.523
244.138
284.612
444.763
425.24
353.731
327.421
397.488
382.77
297.095
274.303
317.658
280.242
219.148
174.738
278.459
237.867
167.48
120.991
123.651
90.2218
29.3788
-5.53498
82.1958
45.1639
-22.5002
-59.802
-39.4962
-51.3095
-118.488
-130.214
-79.1507
-91.7595
-167.912
-181.431
-120.717
-123.18
-182.022
-182.428
-159.685
-160.746
-226.547
-224.977
-91.6471
-90.9442
-135.748
-133.071
-125.119
-122.361
-172.39
-167.414
-12.4615
-11.253
-42.62
-39.7993
-34.9072
-32.5306
-66.6542
-62.4497
41.8626
130.028
170.45
58.7585
109.818
-32.6759
-19.5002
98.3941
39.0937
48.6562
-16.2467
227.46
240.104
96.0248
99.3504
147.635
165.124
34.192
14.1746
223.52
193.091
66.3884
33.4744
153.238
123.15
-25.8383
-60.7163
90.1227
46.5157
-58.1923
-93.6659
21.2742
-22.8573
-149.805
-182.823
-82.2008
-113.66
-201.942
-225.797
-147.39
-179.645
-283.048
-305.604
-208.232
-218.549
-300.711
-307.481
-267.861
-279.257
-370.918
-377.75
-259.225
-261.334
-328.744
-327.217
-310.424
-310.268
-387.018
-382.699
-201.527
-200.495
-250.671
-246.569
-242.699
-239.38
-296.203
-289.437
-96.5287
-95.2144
-128.499
-125.066
-126.179
-123.033
-161.261
-155.536
7.07752
8.39923
-12.0735
-9.68582
-12.3704
-9.99356
-32.2051
-28.6842
79.0195
126.732
63.916
-1.33164
56.7712
54.8501
79.3465
2.85021
80.9293
-32.9888
18.9296
-36.0736
-41.0581
-163.669
-62.5881
-154.334
-72.7677
-126.146
-154.472
-219.738
-147.937
-209.566
-244.106
-318.955
-345.538
-97.1905
-131.504
-248.415
-277.787
-226.047
-259.124
-429.162
-445.606
-208.186
-230.296
-337.429
-344.403
-327.732
-342.194
-487.18
-479.371
-316.917
-331.01
-412.077
-417.205
-415.465
-425.713
-527.552
-526.203
-386.815
-389.479
-457.559
-456.865
-468.249
-470.338
-550.402
-549.036
-397.222
-395.727
-448.655
-444.19
-462.229
-457.544
-519.614
-511.35
-306.479
-303.205
-342.908
-337.353
-356.343
-350.237
-396.162
-387.44
-175.352
-172.956
-199.917
-195.834
-211.034
-206.223
-237.49
-230.776
-51.5524
-50.1032
-67.4637
-64.8648
-73.5051
-70.8909
-90.1471
-86.2991
37.2066
90.9068
25.3037
69.5033
23.7303
20.5624
-27.8838
11.0421
-59.9724
-50.0029
-128.451
11.606
-24.7264
-71.1998
-70.5486
-105.266
-122.072
-201.211
-197.967
-259.986
29.3101
-42.5213
-139.231
-136.456
-245.71
-136.288
-250.37
-254.875
-380.881
-127.586
-246.859
-353.308
-362.674
-443.394
-395.398
-515.729
-539.88
-629.923
-160.836
-282.982
-148.579
-157.329
-171.844
-174.24
-289.923
-317.609
-323.081
-338.185
-332.014
-240.165
-309.134
-344.592
-409.945
-356.63
-439.173
-476.713
-559.49
-540.377
-436.362
-487.958
-492.108
-518.192
-583.853
-657.22
-651.815
-694.628
-644.012
-358.542
-375.455
-374.711
-389.961
-592.04
-582.202
-638.061
-622.909
-420.862
-416.754
-436.337
-433.084
-597.684
-571.34
-630.674
-599.848
-473.147
-473.402
-490.603
-492.617
-602.24
-593.863
-627.338
-619.616
-504.876
-502.975
-522.873
-521.948
-607.195
-604.596
-630.039
-627.635
-485.565