# vtk DataFile Version 3.0
Gravity effects
ASCII
DATASET UNSTRUCTURED_GRID

POINTS	1681	double
0	0	-0.1
50	0	-0.1
100	0	-0.1
150	0	-0.1
200	0	-0.1
250	0	-0.1
300	0	-0.1
350	0	-0.1
400	0	-0.1
450	0	-0.1
500	0	-0.1
550	0	-0.1
600	0	-0.1
650	0	-0.1
700	0	-0.1
750	0	-0.1
800	0	-0.1
850	0	-0.1
900	0	-0.1
950	0	-0.1
1000	0	-0.1
1050	0	-0.1
1100	0	-0.1
1150	0	-0.1
1200	0	-0.1
1250	0	-0.1
1300	0	-0.1
1350	0	-0.1
1400	0	-0.1
1450	0	-0.1
1500	0	-0.1
1550	0	-0.1
1600	0	-0.1
1650	0	-0.1
1700	0	-0.1
1750	0	-0.1
1800	0	-0.1
1850	0	-0.1
1900	0	-0.1
1950	0	-0.1
2000	0	-0.1
0	50	-0.1
50	50	-0.1
100	50	-0.1
150	50	-0.1
200	50	-0.1
250	50	-0.1
300	50	-0.1
350	50	-0.1
400	50	-0.1
450	50	-0.1
500	50	-0.1
550	50	-0.1
600	50	-0.1
650	50	-0.1
700	50	-0.1
750	50	-0.1
800	50	-0.1
850	50	-0.1
900	50	-0.1
950	50	-0.1
1000	50	-0.1
1050	50	-0.1
1100	50	-0.1
1150	50	-0.1
1200	50	-0.1
1250	50	-0.1
1300	50	-0.1
1350	50	-0.1
1400	50	-0.1
1450	50	-0.1
1500	50	-0.1
1550	50	-0.1
1600	50	-0.1
1650	50	-0.1
1700	50	-0.1
1750	50	-0.1
1800	50	-0.1
1850	50	-0.1
1900	50	-0.1
1950	50	-0.1
2000	50	-0.1
0	100	-0.1
50	100	-0.1
100	100	-0.1
150	100	-0.1
200	100	-0.1
250	100	-0.1
300	100	-0.1
350	100	-0.1
400	100	-0.1
450	100	-0.1
500	100	-0.1
550	100	-0.1
600	100	-0.1
650	100	-0.1
700	100	-0.1
750	100	-0.1
800	100	-0.1
850	100	-0.1
900	100	-0.1
950	100	-0.1
1000	100	-0.1
1050	100	-0.1
1100	100	-0.1
1150	100	-0.1
1200	100	-0.1
1250	100	-0.1
1300	100	-0.1
1350	100	-0.1
1400	100	-0.1
1450	100	-0.1
1500	100	-0.1
1550	100	-0.1
1600	100	-0.1
1650	100	-0.1
1700	100	-0.1
1750	100	-0.1
1800	100	-0.1
1850	100	-0.1
1900	100	-0.1
1950	100	-0.1
2000	100	-0.1
0	150	-0.1
50	150	-0.1
100	150	-0.1
150	150	-0.1
200	150	-0.1
250	150	-0.1
300	150	-0.1
350	150	-0.1
400	150	-0.1
450	150	-0.1
500	150	-0.1
550	150	-0.1
600	150	-0.1
650	150	-0.1
700	150	-0.1
750	150	-0.1
800	150	-0.1
850	150	-0.1
900	150	-0.1
950	150	-0.1
1000	150	-0.1
1050	150	-0.1
1100	150	-0.1
1150	150	-0.1
1200	150	-0.1
1250	150	-0.1
1300	150	-0.1
1350	150	-0.1
1400	150	-0.1
1450	150	-0.1
1500	150	-0.1
1550	150	-0.1
1600	150	-0.1
1650	150	-0.1
1700	150	-0.1
1750	150	-0.1
1800	150	-0.1
1850	150	-0.1
1900	150	-0.1
1950	150	-0.1
2000	150	-0.1
0	200	-0.1
50	200	-0.1
100	200	-0.1
150	200	-0.1
200	200	-0.1
250	200	-0.1
300	200	-0.1
350	200	-0.1
400	200	-0.1
450	200	-0.1
500	200	-0.1
550	200	-0.1
600	200	-0.1
650	200	-0.1
700	200	-0.1
750	200	-0.1
800	200	-0.1
850	200	-0.1
900	200	-0.1
950	200	-0.1
1000	200	-0.1
1050	200	-0.1
1100	200	-0.1
1150	200	-0.1
1200	200	-0.1
1250	200	-0.1
1300	200	-0.1
1350	200	-0.1
1400	200	-0.1
1450	200	-0.1
1500	200	-0.1
1550	200	-0.1
1600	200	-0.1
1650	200	-0.1
1700	200	-0.1
1750	200	-0.1
1800	200	-0.1
1850	200	-0.1
1900	200	-0.1
1950	200	-0.1
2000	200	-0.1
0	250	-0.1
50	250	-0.1
100	250	-0.1
150	250	-0.1
200	250	-0.1
250	250	-0.1
300	250	-0.1
350	250	-0.1
400	250	-0.1
450	250	-0.1
500	250	-0.1
550	250	-0.1
600	250	-0.1
650	250	-0.1
700	250	-0.1
750	250	-0.1
800	250	-0.1
850	250	-0.1
900	250	-0.1
950	250	-0.1
1000	250	-0.1
1050	250	-0.1
1100	250	-0.1
1150	250	-0.1
1200	250	-0.1
1250	250	-0.1
1300	250	-0.1
1350	250	-0.1
1400	250	-0.1
1450	250	-0.1
1500	250	-0.1
1550	250	-0.1
1600	250	-0.1
1650	250	-0.1
1700	250	-0.1
1750	250	-0.1
1800	250	-0.1
1850	250	-0.1
1900	250	-0.1
1950	250	-0.1
2000	250	-0.1
0	300	-0.1
50	300	-0.1
100	300	-0.1
150	300	-0.1
200	300	-0.1
250	300	-0.1
300	300	-0.1
350	300	-0.1
400	300	-0.1
450	300	-0.1
500	300	-0.1
550	300	-0.1
600	300	-0.1
650	300	-0.1
700	300	-0.1
750	300	-0.1
800	300	-0.1
850	300	-0.1
900	300	-0.1
950	300	-0.1
1000	300	-0.1
1050	300	-0.1
1100	300	-0.1
1150	300	-0.1
1200	300	-0.1
1250	300	-0.1
1300	300	-0.1
1350	300	-0.1
1400	300	-0.1
1450	300	-0.1
1500	300	-0.1
1550	300	-0.1
1600	300	-0.1
1650	300	-0.1
1700	300	-0.1
1750	300	-0.1
1800	300	-0.1
1850	300	-0.1
1900	300	-0.1
1950	300	-0.1
2000	300	-0.1
0	350	-0.1
50	350	-0.1
100	350	-0.1
150	350	-0.1
200	350	-0.1
250	350	-0.1
300	350	-0.1
350	350	-0.1
400	350	-0.1
450	350	-0.1
500	350	-0.1
550	350	-0.1
600	350	-0.1
650	350	-0.1
700	350	-0.1
750	350	-0.1
800	350	-0.1
850	350	-0.1
900	350	-0.1
950	350	-0.1
1000	350	-0.1
1050	350	-0.1
1100	350	-0.1
1150	350	-0.1
1200	350	-0.1
1250	350	-0.1
1300	350	-0.1
1350	350	-0.1
1400	350	-0.1
1450	350	-0.1
1500	350	-0.1
1550	350	-0.1
1600	350	-0.1
1650	350	-0.1
1700	350	-0.1
1750	350	-0.1
1800	350	-0.1
1850	350	-0.1
1900	350	-0.1
1950	350	-0.1
2000	350	-0.1
0	400	-0.1
50	400	-0.1
100	400	-0.1
150	400	-0.1
200	400	-0.1
250	400	-0.1
300	400	-0.1
350	400	-0.1
400	400	-0.1
450	400	-0.1
500	400	-0.1
550	400	-0.1
600	400	-0.1
650	400	-0.1
700	400	-0.1
750	400	-0.1
800	400	-0.1
850	400	-0.1
900	400	-0.1
950	400	-0.1
1000	400	-0.1
1050	400	-0.1
1100	400	-0.1
1150	400	-0.1
1200	400	-0.1
1250	400	-0.1
1300	400	-0.1
1350	400	-0.1
1400	400	-0.1
1450	400	-0.1
1500	400	-0.1
1550	400	-0.1
1600	400	-0.1
1650	400	-0.1
1700	400	-0.1
1750	400	-0.1
1800	400	-0.1
1850	400	-0.1
1900	400	-0.1
1950	400	-0.1
2000	400	-0.1
0	450	-0.1
50	450	-0.1
100	450	-0.1
150	450	-0.1
200	450	-0.1
250	450	-0.1
300	450	-0.1
350	450	-0.1
400	450	-0.1
450	450	-0.1
500	450	-0.1
550	450	-0.1
600	450	-0.1
650	450	-0.1
700	450	-0.1
750	450	-0.1
800	450	-0.1
850	450	-0.1
900	450	-0.1
950	450	-0.1
1000	450	-0.1
1050	450	-0.1
1100	450	-0.1
1150	450	-0.1
1200	450	-0.1
1250	450	-0.1
1300	450	-0.1
1350	450	-0.1
1400	450	-0.1
1450	450	-0.1
1500	450	-0.1
1550	450	-0.1
1600	450	-0.1
1650	450	-0.1
1700	450	-0.1
1750	450	-0.1
1800	450	-0.1
1850	450	-0.1
1900	450	-0.1
1950	450	-0.1
2000	450	-0.1
0	500	-0.1
50	500	-0.1
100	500	-0.1
150	500	-0.1
200	500	-0.1
250	500	-0.1
300	500	-0.1
350	500	-0.1
400	500	-0.1
450	500	-0.1
500	500	-0.1
550	500	-0.1
600	500	-0.1
650	500	-0.1
700	500	-0.1
750	500	-0.1
800	500	-0.1
850	500	-0.1
900	500	-0.1
950	500	-0.1
1000	500	-0.1
1050	500	-0.1
1100	500	-0.1
1150	500	-0.1
1200	500	-0.1
1250	500	-0.1
1300	500	-0.1
1350	500	-0.1
1400	500	-0.1
1450	500	-0.1
1500	500	-0.1
1550	500	-0.1
1600	500	-0.1
1650	500	-0.1
1700	500	-0.1
1750	500	-0.1
1800	500	-0.1
1850	500	-0.1
1900	500	-0.1
1950	500	-0.1
2000	500	-0.1
0	550	-0.1
50	550	-0.1
100	550	-0.1
150	550	-0.1
200	550	-0.1
250	550	-0.1
300	550	-0.1
350	550	-0.1
400	550	-0.1
450	550	-0.1
500	550	-0.1
550	550	-0.1
600	550	-0.1
650	550	-0.1
700	550	-0.1
750	550	-0.1
800	550	-0.1
850	550	-0.1
900	550	-0.1
950	550	-0.1
1000	550	-0.1
1050	550	-0.1
1100	550	-0.1
1150	550	-0.1
1200	550	-0.1
1250	550	-0.1
1300	550	-0.1
1350	550	-0.1
1400	550	-0.1
1450	550	-0.1
1500	550	-0.1
1550	550	-0.1
1600	550	-0.1
1650	550	-0.1
1700	550	-0.1
1750	550	-0.1
1800	550	-0.1
1850	550	-0.1
1900	550	-0.1
1950	550	-0.1
2000	550	-0.1
0	600	-0.1
50	600	-0.1
100	600	-0.1
150	600	-0.1
200	600	-0.1
250	600	-0.1
300	600	-0.1
350	600	-0.1
400	600	-0.1
450	600	-0.1
500	600	-0.1
550	600	-0.1
600	600	-0.1
650	600	-0.1
700	600	-0.1
750	600	-0.1
800	600	-0.1
850	600	-0.1
900	600	-0.1
950	600	-0.1
1000	600	-0.1
1050	600	-0.1
1100	600	-0.1
1150	600	-0.1
1200	600	-0.1
1250	600	-0.1
1300	600	-0.1
1350	600	-0.1
1400	600	-0.1
1450	600	-0.1
1500	600	-0.1
1550	600	-0.1
1600	600	-0.1
1650	600	-0.1
1700	600	-0.1
1750	600	-0.1
1800	600	-0.1
1850	600	-0.1
1900	600	-0.1
1950	600	-0.1
2000	600	-0.1
0	650	-0.1
50	650	-0.1
100	650	-0.1
150	650	-0.1
200	650	-0.1
250	650	-0.1
300	650	-0.1
350	650	-0.1
400	650	-0.1
450	650	-0.1
500	650	-0.1
550	650	-0.1
600	650	-0.1
650	650	-0.1
700	650	-0.1
750	650	-0.1
800	650	-0.1
850	650	-0.1
900	650	-0.1
950	650	-0.1
1000	650	-0.1
1050	650	-0.1
1100	650	-0.1
1150	650	-0.1
1200	650	-0.1
1250	650	-0.1
1300	650	-0.1
1350	650	-0.1
1400	650	-0.1
1450	650	-0.1
1500	650	-0.1
1550	650	-0.1
1600	650	-0.1
1650	650	-0.1
1700	650	-0.1
1750	650	-0.1
1800	650	-0.1
1850	650	-0.1
1900	650	-0.1
1950	650	-0.1
2000	650	-0.1
0	700	-0.1
50	700	-0.1
100	700	-0.1
150	700	-0.1
200	700	-0.1
250	700	-0.1
300	700	-0.1
350	700	-0.1
400	700	-0.1
450	700	-0.1
500	700	-0.1
550	700	-0.1
600	700	-0.1
650	700	-0.1
700	700	-0.1
750	700	-0.1
800	700	-0.1
850	700	-0.1
900	700	-0.1
950	700	-0.1
1000	700	-0.1
1050	700	-0.1
1100	700	-0.1
1150	700	-0.1
1200	700	-0.1
1250	700	-0.1
1300	700	-0.1
1350	700	-0.1
1400	700	-0.1
1450	700	-0.1
1500	700	-0.1
1550	700	-0.1
1600	700	-0.1
1650	700	-0.1
1700	700	-0.1
1750	700	-0.1
1800	700	-0.1
1850	700	-0.1
1900	700	-0.1
1950	700	-0.1
2000	700	-0.1
0	750	-0.1
50	750	-0.1
100	750	-0.1
150	750	-0.1
200	750	-0.1
250	750	-0.1
300	750	-0.1
350	750	-0.1
400	750	-0.1
450	750	-0.1
500	750	-0.1
550	750	-0.1
600	750	-0.1
650	750	-0.1
700	750	-0.1
750	750	-0.1
800	750	-0.1
850	750	-0.1
900	750	-0.1
950	750	-0.1
1000	750	-0.1
1050	750	-0.1
1100	750	-0.1
1150	750	-0.1
1200	750	-0.1
1250	750	-0.1
1300	750	-0.1
1350	750	-0.1
1400	750	-0.1
1450	750	-0.1
1500	750	-0.1
1550	750	-0.1
1600	750	-0.1
1650	750	-0.1
1700	750	-0.1
1750	750	-0.1
1800	750	-0.1
1850	750	-0.1
1900	750	-0.1
1950	750	-0.1
2000	750	-0.1
0	800	-0.1
50	800	-0.1
100	800	-0.1
150	800	-0.1
200	800	-0.1
250	800	-0.1
300	800	-0.1
350	800	-0.1
400	800	-0.1
450	800	-0.1
500	800	-0.1
550	800	-0.1
600	800	-0.1
650	800	-0.1
700	800	-0.1
750	800	-0.1
800	800	-0.1
850	800	-0.1
900	800	-0.1
950	800	-0.1
1000	800	-0.1
1050	800	-0.1
1100	800	-0.1
1150	800	-0.1
1200	800	-0.1
1250	800	-0.1
1300	800	-0.1
1350	800	-0.1
1400	800	-0.1
1450	800	-0.1
1500	800	-0.1
1550	800	-0.1
1600	800	-0.1
1650	800	-0.1
1700	800	-0.1
1750	800	-0.1
1800	800	-0.1
1850	800	-0.1
1900	800	-0.1
1950	800	-0.1
2000	800	-0.1
0	850	-0.1
50	850	-0.1
100	850	-0.1
150	850	-0.1
200	850	-0.1
250	850	-0.1
300	850	-0.1
350	850	-0.1
400	850	-0.1
450	850	-0.1
500	850	-0.1
550	850	-0.1
600	850	-0.1
650	850	-0.1
700	850	-0.1
750	850	-0.1
800	850	-0.1
850	850	-0.1
900	850	-0.1
950	850	-0.1
1000	850	-0.1
1050	850	-0.1
1100	850	-0.1
1150	850	-0.1
1200	850	-0.1
1250	850	-0.1
1300	850	-0.1
1350	850	-0.1
1400	850	-0.1
1450	850	-0.1
1500	850	-0.1
1550	850	-0.1
1600	850	-0.1
1650	850	-0.1
1700	850	-0.1
1750	850	-0.1
1800	850	-0.1
1850	850	-0.1
1900	850	-0.1
1950	850	-0.1
2000	850	-0.1
0	900	-0.1
50	900	-0.1
100	900	-0.1
150	900	-0.1
200	900	-0.1
250	900	-0.1
300	900	-0.1
350	900	-0.1
[...]
CELL_DATA	1681
SCALARS T_zz double 1
LOOKUP_TABLE table0
-0.444792
-0.480628
-0.515379
-0.514004
-0.533815
-0.551429
-0.550433
-0.560668
-0.573908
-0.571568
-0.56063
-0.54716
-0.544177
-0.484076
-0.482331
-0.46206
-0.436175
-0.425315
-0.394109
-0.365511
-0.340928
-0.321646
-0.297089
-0.259571
-0.245349
-0.210471
-0.176848
-0.150068
-0.109515
-0.0710473
-0.0364197
-0.00336115
0.0265807
0.0510363
0.0723543
0.0855563
0.0956368
0.0972747
0.100486
0.0950857
0.0859423
-0.471541
-0.506418
-0.543968
-0.561776
-0.576697
-0.603598
-0.620493
-0.61634
-0.616495
-0.595161
-0.566184
-0.57584
-0.524174
-0.472299
-0.443495
-0.429875
-0.417205
-0.371543
-0.375821
-0.361634
-0.3526
-0.349201
-0.325913
-0.329977
-0.320094
-0.298118
-0.272001
-0.220393
-0.185632
-0.141731
-0.100041
-0.0525142
-0.0101761
0.0259809
0.0549313
0.0788463
0.0919702
0.0971239
0.10286
0.104427
0.0968552
-0.51424
-0.527521
-0.563545
-0.592933
-0.621864
-0.639867
-0.630543
-0.614479
-0.639365
-0.610977
-0.54148
-0.495974
-0.453745
-0.418134
-0.36415
-0.33657
-0.319665
-0.311102
-0.324663
-0.337393
-0.36446
-0.380161
-0.404226
-0.410961
-0.419286
-0.418677
-0.399536
-0.378865
-0.333337
-0.270484
-0.21215
-0.147246
-0.0832128
-0.0260979
0.0208599
0.0562675
0.0838156
0.0980362
0.105381
0.109487
0.105754
-0.565631
-0.588315
-0.603914
-0.620983
-0.637507
-0.629368
-0.665063
-0.606632
-0.603154
-0.546659
-0.49698
-0.405659
-0.329387
-0.241815
-0.182624
-0.142589
-0.133555
-0.156251
-0.19362
-0.26032
-0.331426
-0.396005
-0.50782
-0.564541
-0.617721
-0.642791
-0.659417
-0.636904
-0.570847
-0.518239
-0.421457
-0.313813
-0.215997
-0.127484
-0.0466484
0.0141202
0.0593009
0.0848435
0.102088
0.112008
0.105777
-0.582385
-0.621841
-0.636867
-0.659598
-0.659892
-0.67301
-0.64629
-0.624181
-0.538023
-0.44565
-0.310425
-0.167838
-0.0344312
0.0873792
0.176962
0.218792
0.210851
0.150796
0.038695
-0.104951
-0.268776
-0.435754
-0.643792
-0.804824
-0.931929
-1.03802
-1.07484
-1.09841
-1.02009
-0.909265
-0.778481
-0.602662
-0.425595
-0.291876
-0.158361
-0.0610676
0.0107966
0.0581459
0.0893281
0.0997375
0.109266
-0.586731
-0.684455
-0.674327
-0.691011
-0.693338
-0.672791
-0.606059
-0.548926
-0.4185
-0.226193
-0.0191297
0.22514
0.474832
0.67483
0.817888
0.882307
0.837555
0.707367
0.475127
0.183767
-0.150898
-0.50646
-0.836822
-1.13061
-1.47304
-1.62584
-1.75986
-1.81327
-1.74753
-1.56425
-1.3549
-1.01308
-0.820856
-0.542028
-0.32312
-0.187338
-0.0662024
0.013686
0.062379
0.0881076
0.100868
-0.628488
-0.689637
-0.688994
-0.703926
-0.69694
-0.671908
-0.573194
-0.405734
-0.198638
0.0959923
0.482395
0.892663
1.26901
1.62324
2.01388
2.03303
1.91101
1.61375
1.17013
0.699143
0.0781644
-0.521532
-1.16808
-1.80121
-2.21966
-2.66362
-2.86076
-3.07151
-2.96971
-2.62136
-2.26453
-1.76366
-1.38766
-0.940263
-0.587644
-0.351055
-0.182414
-0.0551436
0.0224979
0.066315
0.0897479
-0.666879
-0.711608
-0.72549
-0.740369
-0.681001
-0.609406
-0.466375
-0.22168
0.121274
0.620246
1.2115
1.9091
2.6975
3.38345
3.83558
3.996
3.78282
3.17405
2.42972
1.558
0.46969
-0.574561
-1.69429
-2.63362
-3.63722
-4.33555
-4.68849
-4.94182
-4.88977
-4.4588
-3.6766
-2.8963
-2.1298
-1.49836
-1.00609
-0.585211
-0.339508
-0.145748
-0.033306
0.034803
0.0718576
-0.69912
-0.713549
-0.730279
-0.729564
-0.670282
-0.549913
-0.335017
0.028332
0.570689
1.33112
2.36557
3.51832
4.80611
5.96374
6.78075
6.87849
6.6027
5.61759
4.49075
2.82745
1.10321
-0.674824
-2.2927
-4.08037
-5.59867
-7.05415
-7.85369
-8.04934
-8.01564
-7.36428
-6.02327
-4.77059
-3.34026
-2.29832
-1.52336
-0.926791
-0.523037
-0.272116
-0.106432
-0.00866709
0.0439244
-0.701895
-0.72332
-0.740688
-0.709844
-0.632441
-0.465254
-0.157623
0.360375
1.15097
2.262
3.92603
5.62993
7.6596
9.85691
11.1626
11.3361
10.8093
9.49618
7.17091
4.74456
2.01989
-0.724757
-3.38526
-6.02705
-8.46192
-10.6633
-12.3743
-12.8778
-12.3534
-10.9068
-9.07475
-7.08985
-4.96877
-3.24449
-2.11576
-1.36887
-0.76796
-0.425378
-0.19872
-0.0586071
0.0119295
-0.76938
-0.760012
-0.774494
-0.700834
-0.615576
-0.359849
0.0428223
0.734451
1.849
3.49777
5.74908
8.52976
11.9123
14.8071
17.4521
17.5703
17.3548
14.4222
11.1989
7.01819
3.16264
-0.77601
-4.69049
-8.61592
-12.2608
-16.0701
-18.1832
-19.3946
-18.425
-16.1667
-13.1099
-10.1951
-7.24484
-4.58759
-3.00712
-1.74899
-1.055
-0.587428
-0.278558
-0.120998
-0.0261491
-0.77264
-0.790141
-0.776087
-0.702966
-0.564561
-0.285704
0.240387
1.09331
2.49249
4.88472
7.76267
11.8838
16.9315
21.4027
24.4786
25.2052
23.6989
20.2705
15.0805
9.97596
4.39626
-0.823919
-5.99843
-11.5206
-17.0913
-21.4573
-25.9744
-26.7573
-25.6492
-22.8561
-17.7187
-13.3785
-9.03554
-5.93915
-3.6991
-2.14733
-1.32079
-0.734214
-0.389314
-0.179486
-0.070177
-0.793302
-0.807944
-0.782651
-0.691937
-0.538351
-0.20611
0.403654
1.42185
3.13087
5.91607
9.54193
14.9916
20.7143
26.1351
29.574
32.3128
30.6835
25.307
19.5349
12.8266
5.85589
-0.922543
-7.61851
-14.3802
-21.2398
-26.8642
-31.338
-33.2728
-32.5677
-28.7016
-22.2181
-16.2642
-11.0676
-7.04509
-4.51718
-2.66082
-1.58467
-0.87967
-0.486124
-0.245465
-0.110688
-0.82599
-0.829078
-0.818469
-0.718935
-0.525546
-0.16387
0.511455
1.60222
3.47668
6.54483
10.6262
16.957
23.2103
29.8369
35.0062
36.3586
34.5255
28.232
22.7293
14.3277
6.30584
-0.985419
-8.55501
-16.1658
-24.6854
-32.5143
-36.4887
-38.2273
-36.7259
-33.3737
-26.0221
-18.523
-12.517
-8.01151
-4.82159
-3.00826
-1.72583
-0.986083
-0.549175
-0.30132
-0.15471
-0.816292
-0.852681
-0.812307
-0.725729
-0.549257
-0.165793
0.507155
1.69031
3.49904
6.7525
11.0794
17.3601
24.6995
32.6746
36.1957
36.9153
35.7378
30.9509
23.4256
14.9322
6.77565
-1.02916
-8.87342
-17.1589
-26.0688
-32.9365
-38.8362
-39.0051
-38.3924
-33.6149
-27.2207
-19.9069
-13.2187
-8.15641
-5.00669
-3.09767
-1.79698
-1.03817
-0.627234
-0.344041
-0.191453
-0.81944
-0.845825
-0.84678
-0.748546
-0.593265
-0.225147
0.432203
1.63682
3.42839
6.37038
10.535
17.2396
23.3373
30.2257
36.2337
35.9375
34.0073
29.2207
23.2636
14.6163
6.44617
-1.04264
-8.14707
-16.5156
-24.1198
-31.4254
-36.1567
-38.263
-36.6441
-32.8057
-26.3487
-18.0903
-12.499
-8.16638
-4.98974
-3.03335
-1.82178
-1.11282
-0.641243
-0.376
-0.228904
-0.845494
-0.85595
-0.84948
-0.799465
-0.646842
-0.325473
0.275711
1.30473
2.93573
5.48726
9.3373
14.8662
20.2749
25.7235
30.2381
32.6757
29.9774
25.7786
19.3969
12.445
5.57886
-1.00172
-7.57461
-14.0828
-21.1212
-27.9142
-30.9736
-33.5066
-32.8705
-28.1127
-23.8127
-16.6971
-11.0499
-7.19744
-4.47709
-2.92957
-1.74766
-1.03922
-0.685965
-0.406392
-0.264305
-0.851365
-0.849007
-0.888027
-0.842975
-0.721417
-0.441037
0.0517078
0.885939
2.28866
4.46412
7.59669
11.6502
16.8303
21.0261
23.7041
24.4841
23.454
20.3235
15.178
9.80374
4.29436
-0.930171
-6.09987
-11.7262
-17.3997
-22.3965
-25.5595
-26.5113
-25.2994
-22.6163
-18.2043
-13.577
-9.28771
-6.15518
-3.9459
-2.62154
-1.57166
-1.01048
-0.647807
-0.426223
-0.291887
-0.849814
-0.911709
-0.905323
-0.887169
-0.808581
-0.600765
-0.201897
0.45278
1.46413
3.1888
5.46604
8.51664
11.6534
14.8523
16.9891
17.7767
16.4392
14.0442
11.3621
7.28161
3.24717
-0.65549
-4.45601
-8.25032
-12.6334
-15.8488
-17.9715
-19.4663
-18.0433
-15.9584
-13.4188
-10.031
-7.12504
-4.89997
-3.14898
-2.07988
-1.42722
-0.905493
-0.629066
-0.435458
-0.309154
-0.844794
-0.944333
-0.939987
-0.919627
-0.911674
-0.747421
-0.443287
0.0327014
0.779554
1.92217
3.33821
5.51465
7.56183
9.4109
10.8443
11.2327
10.6432
9.45451
7.48166
5.0537
2.44857
-0.172395
-2.80782
-5.4572
-7.96062
-10.3829
-11.6597
-12.5606
-11.9006
-10.7952
-8.96969
-7.21249
-4.99991
-3.54177
-2.48186
-1.63527
-1.1684
-0.822258
-0.579483
-0.436363
-0.343008
-0.876922
-0.932278
-1.00522
-0.972592
-0.957535
-0.835862
-0.665021
-0.340485
0.165488
0.889159
1.90486
3.16635
4.36875
5.61897
6.60398
6.6471
6.65145
5.82016
5.02811
3.70124
2.14902
0.675766
-0.917473
-2.54634
-3.95872
-5.26975
-6.53425
-6.87122
-6.92216
-6.39591
-5.21675
-4.08898
-3.29071
-2.36555
-1.76725
-1.27028
-0.953522
-0.68693
-0.53969
-0.439225
-0.361854
-0.868067
-0.904398
-0.989134
-1.01886
-1.02336
-0.97742
-0.859011
-0.632283
-0.341431
0.134517
0.747103
1.50106
2.21409
3.04428
3.6502
4.01244
4.18005
4.30869
3.78659
3.34199
2.79122
2.05658
1.24789
0.375142
-0.48752
-1.30632
-1.93987
-2.35808
-2.60606
-2.51512
-2.33565
-1.98171
-1.66292
-1.31235
-1.06135
-0.908667
-0.709409
-0.60002
-0.508918
-0.422993
-0.395862
-0.845369
-0.940563
-1.0011
-1.03629
-1.03509
-1.017
-1.01612
-0.909815
-0.69245
-0.419327
-0.0311914
0.44166
0.944291
1.52838
2.15981
2.62508
3.10241
3.58728
3.81812
4.12703
4.19323
4.15304
4.165
3.64373
3.29811
2.73222
2.25059
1.83224
1.32843
0.869018
0.500356
0.144075
-0.13078
-0.339666
-0.442921
-0.506705
-0.508235
-0.493605
-0.474983
-0.440696
-0.399586
-0.85819
-0.923033
-0.986799
-1.03833
-1.11756
-1.10034
-1.08229
-1.0327
-0.981497
-0.779983
-0.513423
-0.193191
0.226506
0.741904
1.34392
2.12404
3.00161
4.17239
5.09917
6.35008
7.13123
7.6819
8.1472
8.04031
7.85304
7.77682
7.10383
6.56971
5.63078
4.51778
3.40845
2.30116
1.44844
0.681493
0.19416
-0.125063
-0.305721
-0.404122
-0.440655
-0.458154
-0.428703
-0.855678
-0.905072
-0.960577
-1.04427
-1.10645
-1.11232
-1.16954
-1.11622
-1.04897
-0.981855
-0.821251
-0.548511
-0.157304
0.396692
1.21043
2.2933
3.6441
5.57219
7.66053
10.011
11.5498
12.5987
13.4656
14.0607
13.5848
13.5625
13.2206
11.7746
10.6014
8.73722
6.98392
4.64981
3.05578
1.72211
0.822791
0.238576
-0.111922
-0.308481
-0.408805
-0.454352
-0.44963
-0.82174
-0.931923
-0.967516
-1.07663
-1.10409
-1.20553
-1.17227
-1.21978
-1.18129
-1.09165
-0.956024
-0.738089
-0.30537
0.336037
1.36142
2.85062
4.81602
7.81776
11.3348
14.2506
17.3186
19.6073
20.5128
20.8762
21.6878
21.1826
20.6949
18.8046
16.973
13.9623
11.2742
7.81325
5.00101
2.947
1.43347
0.607662
0.0645704
-0.231287
-0.388582
-0.450563
-0.479801
-0.820658
-0.893376
-0.994921
-1.03569
-1.10335
-1.13015
-1.21467
-1.21318
-1.2032
-1.16758
-1.04513
-0.784614
-0.333572
0.419805
1.64501
3.55649
6.38144
10.3446
14.4703
19.9021
23.0976
26.4428
28.7902
28.1652
29.7247
28.6001
29.0155
25.7042
23.8333
19.5768
14.893
10.7155
6.66137
3.90789
1.96551
0.916908
0.208147
-0.176815
-0.37829
-0.455265
-0.492084
-0.785113
-0.86426
-0.926474
-0.984185
-1.04076
-1.10357
-1.19926
-1.21401
-1.21363
-1.20504
-1.0787
-0.82656
-0.317872
0.522995
1.90665
4.1189
7.67724
12.2559
18.492
22.96
28.059
31.4833
32.9963
35.3795
35.3691
34.5988
33.7734
32.4719
29.1193
23.9773
18.0665
12.422
8.0226
4.55448
2.45484
1.08179
0.294431
-0.140103
-0.358903
-0.479569
-0.505337
-0.773568
-0.83917
-0.903165
-0.993166
-1.04515
-1.11564
-1.18131
-1.22397
-1.21479
-1.16767
-1.06635
-0.796059
-0.310643
0.53834
2.04191
4.42359
7.78567
13.056
18.9633
24.8256
31.4814
32.3082
37.1101
37.8531
37.0937
37.2345
35.6469
34.4558
30.0977
26.3334
19.0132
13.4082
8.58493
4.90154
2.48233
1.15244
0.308442
-0.152405
-0.400565
-0.519621
-0.536452
-0.760979
-0.80798
-0.868736
-0.943748
-1.05243
-1.07576
-1.17889
-1.22406
-1.17348
-1.19532
-1.03639
-0.818121
-0.364014
0.444228
1.81886
4.13108
7.46577
12.3189
17.4938
23.8006
28.5585
31.164
33.7339
34.3658
34.4661
35.2521
34.709
32.6957
28.3151
23.5431
18.9755
12.3204
7.93986
4.70223
2.38312
1.02004
0.24424
-0.190622
-0.42839
-0.540456
-0.590065
-0.719959
-0.799115
-0.860983
-0.936268
-0.988531
-1.01416
-1.09586
-1.15927
-1.16477
-1.18485
-1.05164
-0.818092
-0.442574
0.263159
1.47987
3.34002
6.04177
9.71463
14.6395
19.0136
23.3562
26.6034
27.6116
28.8619
28.5313
28.2958
27.8943
26.392
22.3718
19.9858
15.0149
10.5237
6.57842
3.99053
1.99714
0.818236
0.122937
-0.26449
-0.489708
-0.556268
-0.596004
-0.722009
-0.741539
-0.845576
-0.854295
-0.999666
-1.00885
-1.06517
-1.06846
-1.1872
-1.10904
-1.11764
-0.894398
-0.582232
0.00501799
0.991418
2.4494
4.64619
7.30883
10.6423
14.1324
17.3115
19.4518
19.9253
21.0792
21.9473
21.6081
20.61
19.3752
17.0887
14.1163
10.749
7.77089
4.90625
2.87445
1.49209
0.508266
-0.0508994
-0.367073
-0.532915
-0.60411
-0.628007
-0.678016
-0.737205
-0.77363
-0.858234
-0.928196
-0.993695
-1.01815
-1.11717
-1.14708
-1.13777
-1.08629
-0.958133
-0.708327
-0.27406
0.418895
1.49862
2.85078
4.92425
6.97044
9.44134
10.6379
12.7289
13.9047
14.2694
14.7623
14.3472
14.3501
13.6032
11.3854
9.89508
7.53567
5.35733
3.52189
1.90001
0.872264
0.18508
-0.244597
-0.454389
-0.588111
-0.637976
-0.635331
-0.644974
-0.732877
-0.756241
-0.813363
-0.912811
-0.965898
-0.991099
-1.04308
-1.09483
-1.12252
-1.09074
-0.986107
-0.819161
-0.531947
-0.0548905
0.652067
1.59594
2.8
4.06081
5.55791
6.6858
7.65665
8.5615
9.13151
9.17353
8.94461
8.29433
7.56067
7.04947
5.81501
4.38212
3.02564
2.00944
0.990797
0.336027
-0.124188
-0.41302
-0.549263
-0.660764
-0.667332
-0.654985
-0.626321
-0.677476
-0.724183
-0.772056
-0.846249
-0.891331
-0.94164
-1.01957
-1.05928
-1.07887
-1.09471
-1.04588
-0.942492
-0.72795
-0.426858
0.00852656
0.623891
1.34565
2.1298
2.95425
3.59339
4.31236
4.68463
5.21075
5.2152
4.98758
4.80113
4.43202
4.02657
3.1906
2.31884
1.65107
0.937511
0.33803
-0.0853634
-0.373044
-0.554952
-0.645391
-0.700547
-0.677689
-0.680007
-0.595093
-0.666561
-0.704951
-0.750268
-0.785681
-0.84072
-0.871341
-0.965304
-0.962929
-1.09245
-1.05403
-1.08133
-0.998163
-0.945754
-0.717067
-0.433632
-0.0957721
0.32596
0.783359
1.26253
1.71814
2.05489
2.32061
2.47942
2.60528
2.57031
2.45896
2.20352
1.87109
1.49024
1.02465
0.59464
0.183794
-0.149184
-0.407293
-0.573256
-0.655143
-0.713795
-0.72785
-0.680418
-0.66764
-0.565413
-0.605719
-0.676447
-0.70472
-0.76051
-0.816245
-0.851216
-0.923984
-1.00039
-1.00981
-1.00172
-1.08599
-1.0227
-0.990556
-0.865513
-0.773386
-0.553018
-0.312378
-0.057163
0.213103
0.446242
0.662483
0.823803
0.911194
0.926908
0.959913
0.888859
0.747997
0.587854
0.374689
0.139417
-0.095376
-0.309849
-0.492715
-0.623916
-0.686261
-0.734763
-0.774522
-0.745843
-0.71388
-0.659851
-0.525777
-0.556177
-0.622679
-0.677263
-0.73965
-0.761148
-0.84962
-0.875759
-0.948034
-0.978501
-0.995054
-1.01092
-1.04768
-0.997728
-0.97519
-0.876027
-0.822621
-0.731194
-0.563856
-0.421949
-0.28402
-0.168306
-0.0768558
-0.0170963
0.0139173
0.0141952
-0.0176817
-0.0794474
-0.170061
-0.281514
-0.391807
-0.51275
-0.606931
-0.671521
-0.736629
-0.796399
-0.793315
-0.7518
-0.742299
-0.725429
-0.662632
-0.514527
-0.573351
-0.60596
-0.648991
-0.674065
-0.73451
-0.785915
-0.831321
-0.903028
-0.926724
-0.981985
-0.988477
-1.02101
-0.97866
-1.02773
-0.982193
-0.927302
-0.901388
-0.836354
-0.788647
-0.700141
-0.6395
-0.59012
-0.571719
-0.550847
-0.54114
-0.556087
-0.582636
-0.62239
-0.659662
-0.733167
-0.72661
-0.800893
-0.813405
-0.829598
-0.806999
-0.80558
-0.780939
-0.754524
-0.713783
-0.662762
-0.476879
-0.536804
-0.557715
-0.60157
-0.653306
-0.710825
-0.742675
-0.774733
-0.83398
-0.895525
-0.917532
-0.940166
-0.974125
-1.01357
-1.0356
-1.00873
-1.01132
-1.01232
-0.946218
-0.932769
-0.922296
-0.888647
-0.903715
-0.848382
-0.872367
-0.825252
-0.801381
-0.856254
-0.843599
-0.838278
-0.882567
-0.834294
-0.84962
-0.879635
-0.836648
-0.820129
-0.766816
-0.740275
-0.704665
-0.675442
-0.602153
-0.466156
-0.487679
-0.524234
-0.574762
-0.629063
-0.640677
-0.693801
-0.745481
-0.777988
-0.841958
-0.834502
-0.907994
-0.946547
-0.994454
-0.989922
-1.04811
-1.01022
-1.07052
-1.03337
-1.00761
-1.04741
-0.974116
-0.975877
-0.969166
-0.978751
-0.97239
-0.969745
-0.934318
-0.950965
-0.931095
-0.906782
-0.89686
-0.893516
-0.885491
-0.850129
-0.794871
-0.766948
-0.723227
-0.68805
-0.630511
-0.559043
SCALARS T_xz double 1
LOOKUP_TABLE table1
0.395136
0.447642
0.461113
0.497049
0.51241
0.51635
0.522211
0.50715
0.483176
0.416555
0.316983
0.194922
0.0417345
-0.137387
-0.32548
-0.532054
-0.718568
-0.950067
-1.0991
-1.22273
-1.28227
-1.37683
-1.33412
-1.23334
-1.18341
-1.03519
-0.806858
-0.631362
-0.444958
-0.251284
-0.0842034
0.0600803
0.182163
0.264648
0.328531
0.35724
0.373408
0.37739
0.365992
0.329002
0.309434
0.477454
0.52754
0.558388
0.582328
0.641337
0.657178
0.697912
0.686894
0.628456
0.574462
0.488378
0.316111
0.122927
-0.118616
-0.378809
-0.634156
-0.920659
-1.18305
-1.41401
-1.55435
-1.67874
-1.74366
-1.73962
-1.62302
-1.3978
-1.28511
-1.04354
-0.767218
-0.47369
-0.251556
-0.0281845
0.16158
0.298164
0.405277
0.445344
0.515711
0.494903
0.489504
0.465136
0.423244
0.385495
0.553861
0.621888
0.671409
0.711042
0.810509
0.840633
0.896682
0.840724
0.861715
0.775633
0.66539
0.478087
0.232801
-0.0618357
-0.418244
-0.800262
-1.19081
-1.48606
-1.82358
-1.99984
-2.22731
-2.26092
-2.2525
-2.08131
-1.93035
-1.61357
-1.24108
-0.896442
-0.536236
-0.21525
0.07206
0.315617
0.497688
0.604198
0.668734
0.683854
0.674161
0.638316
0.608
0.54663
0.489428
0.672907
0.742279
0.831389
0.908032
1.00335
1.08378
1.13861
1.20268
1.15085
1.09982
0.955499
0.755876
0.442711
0.0368551
-0.414632
-0.942444
-1.44186
-1.96732
-2.33179
-2.70973
-2.9027
-2.96824
-2.90164
-2.69424
-2.28474
-2.04898
-1.56034
-1.07842
-0.584571
-0.149484
0.238084
0.546558
0.710691
0.86126
0.94351
0.937982
0.878593
0.844335
0.764008
0.682411
0.610315
0.741154
0.875453
0.959412
1.12601
1.19372
1.35486
1.48724
1.54066
1.53279
1.54513
1.41155
1.10855
0.720329
0.206293
-0.423166
-1.12978
-1.76063
-2.33078
-3.04154
-3.41636
-3.73818
-3.84983
-3.75871
-3.54739
-3.23397
-2.59798
-1.94128
-1.28457
-0.59402
-0.0110289
0.515973
0.848196
1.13955
1.25741
1.29277
1.25199
1.1815
1.08999
0.987605
0.830299
0.737071
0.902502
0.997685
1.15613
1.31794
1.50612
1.62149
1.80512
2.01639
2.0243
2.17537
2.0141
1.64332
1.14736
0.475184
-0.363349
-1.32275
-2.22216
-3.22148
-4.02814
-4.53372
-4.60424
-4.81808
-4.91591
-4.72091
-4.11159
-3.33186
-2.53571
-1.5391
-0.614398
0.233471
0.903867
1.37207
1.67228
1.87332
1.82319
1.71304
1.50413
1.43273
1.22774
1.04502
0.877398
1.02389
1.17985
1.36687
1.54702
1.88536
2.0491
2.25859
2.56489
2.74113
2.85988
2.83692
2.46634
1.84797
0.929571
-0.218849
-1.56794
-2.93922
-4.27156
-5.33797
-5.84826
-6.35821
-6.50945
-6.59482
-6.05152
-5.50062
-4.30671
-3.05773
-1.78102
-0.49456
0.646539
1.52966
2.096
2.39417
2.55087
2.36186
2.23342
1.98821
1.75501
1.43478
1.25554
1.02991
1.13758
1.35841
1.59577
1.85583
2.14062
2.50243
2.85868
3.41151
3.64231
4.03093
3.9092
3.51156
2.86246
1.62484
0.0386564
-1.79326
-3.6222
-5.23137
-6.74692
-7.95332
-8.32355
-8.78974
-8.45126
-7.63856
-6.96434
-5.63251
-3.88642
-2.11991
-0.292661
1.26444
2.44286
3.17399
3.47739
3.43215
3.25359
2.93654
2.51263
2.17039
1.70476
1.4493
1.17282
1.28477
1.50213
1.77712
2.1221
2.62353
3.11536
3.62405
4.1494
4.84837
5.11838
5.40923
5.08644
4.33332
2.59737
0.476406
-2.06768
-4.69359
-6.88144
-9.23076
-10.4663
-10.8811
-11.1828
-11.5126
-10.5079
-9.42558
-7.02096
-4.82439
-2.4992
0.0769205
2.22937
3.78938
4.52807
4.84955
4.6117
4.33142
3.64585
3.12387
2.58563
2.10169
1.71872
1.38554
1.40051
1.68232
1.97703
2.41086
2.89968
3.58491
4.33277
5.23398
5.96683
6.80823
7.13598
6.85131
5.89375
4.00458
1.15522
-2.28779
-5.68676
-8.95908
-11.5093
-13.4254
-14.1513
-14.4745
-14.5692
-13.5274
-11.8389
-9.22223
-6.27008
-2.70673
0.65997
3.40078
5.4763
6.59329
6.54765
6.0021
5.40639
4.57276
3.73132
3.03941
2.43871
2.01042
1.56399
1.52987
1.85846
2.33869
2.75655
3.32724
3.93921
5.31538
6.2508
7.44403
8.57063
9.2363
9.44799
8.21396
5.67397
2.00301
-2.51208
-7.11233
-11.401
-14.936
-16.2942
-17.4315
-17.8651
-17.1049
-16.9166
-14.7622
-11.6677
-7.78715
-3.02615
1.40288
5.09244
7.75975
8.22844
8.45339
7.71961
6.54328
5.50243
4.61048
3.50124
2.66081
2.16225
1.78903
1.6655
1.97228
2.4353
3.05751
3.77198
4.59733
5.75814
7.11008
8.96487
10.3304
11.7561
12.409
10.7897
7.62305
3.05252
-2.78152
-8.40269
-14.0261
-17.6567
-20.2675
-21.3222
-21.3804
-20.937
-20.9664
-17.9608
-14.4059
-8.96746
-3.23444
2.3278
7.03468
9.72527
11.2775
11.2558
9.44486
7.91152
6.35987
4.93892
4.01315
2.992
2.39116
1.80912
1.75729
2.10314
2.6558
3.221
4.07733
4.99221
6.48487
8.12501
10.0089
11.546
13.8273
14.7081
13.4189
9.32708
4.04583
-2.79347
-9.62595
-16.0924
-20.7514
-23.7472
-24.5076
-24.3978
-23.8304
-24.6512
-21.2546
-16.4115
-10.5832
-3.49297
3.12549
8.66724
11.983
13.4167
12.3323
10.7813
8.66908
7.11443
5.48181
4.23108
3.2811
2.46975
1.93369
1.81332
2.26389
2.66734
3.39372
4.22917
5.29575
6.68056
8.51337
10.7811
12.957
14.9783
15.7304