# vtk DataFile Version 3.0
Gravity effects
ASCII
DATASET UNSTRUCTURED_GRID

POINTS	1681	double
0	0	-0.1
50	0	-0.1
100	0	-0.1
150	0	-0.1
200	0	-0.1
250	0	-0.1
300	0	-0.1
350	0	-0.1
400	0	-0.1
450	0	-0.1
500	0	-0.1
550	0	-0.1
600	0	-0.1
650	0	-0.1
700	0	-0.1
750	0	-0.1
800	0	-0.1
850	0	-0.1
900	0	-0.1
950	0	-0.1
1000	0	-0.1
1050	0	-0.1
1100	0	-0.1
1150	0	-0.1
1200	0	-0.1
1250	0	-0.1
1300	0	-0.1
1350	0	-0.1
1400	0	-0.1
1450	0	-0.1
1500	0	-0.1
1550	0	-0.1
1600	0	-0.1
1650	0	-0.1
1700	0	-0.1
1750	0	-0.1
1800	0	-0.1
1850	0	-0.1
1900	0	-0.1
1950	0	-0.1
2000	0	-0.1
0	50	-0.1
50	50	-0.1
100	50	-0.1
150	50	-0.1
200	50	-0.1
250	50	-0.1
300	50	-0.1
350	50	-0.1
400	50	-0.1
450	50	-0.1
500	50	-0.1
550	50	-0.1
600	50	-0.1
650	50	-0.1
700	50	-0.1
750	50	-0.1
800	50	-0.1
850	50	-0.1
900	50	-0.1
950	50	-0.1
1000	50	-0.1
1050	50	-0.1
1100	50	-0.1
1150	50	-0.1
1200	50	-0.1
1250	50	-0.1
1300	50	-0.1
1350	50	-0.1
1400	50	-0.1
1450	50	-0.1
1500	50	-0.1
1550	50	-0.1
1600	50	-0.1
1650	50	-0.1
1700	50	-0.1
1750	50	-0.1
1800	50	-0.1
1850	50	-0.1
1900	50	-0.1
1950	50	-0.1
2000	50	-0.1
0	100	-0.1
50	100	-0.1
100	100	-0.1
150	100	-0.1
200	100	-0.1
250	100	-0.1
300	100	-0.1
350	100	-0.1
400	100	-0.1
450	100	-0.1
500	100	-0.1
550	100	-0.1
600	100	-0.1
650	100	-0.1
700	100	-0.1
750	100	-0.1
800	100	-0.1
850	100	-0.1
900	100	-0.1
950	100	-0.1
1000	100	-0.1
1050	100	-0.1
1100	100	-0.1
1150	100	-0.1
1200	100	-0.1
1250	100	-0.1
1300	100	-0.1
1350	100	-0.1
1400	100	-0.1
1450	100	-0.1
1500	100	-0.1
1550	100	-0.1
1600	100	-0.1
1650	100	-0.1
1700	100	-0.1
1750	100	-0.1
1800	100	-0.1
1850	100	-0.1
1900	100	-0.1
1950	100	-0.1
2000	100	-0.1
0	150	-0.1
50	150	-0.1
100	150	-0.1
150	150	-0.1
200	150	-0.1
250	150	-0.1
300	150	-0.1
350	150	-0.1
400	150	-0.1
450	150	-0.1
500	150	-0.1
550	150	-0.1
600	150	-0.1
650	150	-0.1
700	150	-0.1
750	150	-0.1
800	150	-0.1
850	150	-0.1
900	150	-0.1
950	150	-0.1
1000	150	-0.1
1050	150	-0.1
1100	150	-0.1
1150	150	-0.1
1200	150	-0.1
1250	150	-0.1
1300	150	-0.1
1350	150	-0.1
1400	150	-0.1
1450	150	-0.1
1500	150	-0.1
1550	150	-0.1
1600	150	-0.1
1650	150	-0.1
1700	150	-0.1
1750	150	-0.1
1800	150	-0.1
1850	150	-0.1
1900	150	-0.1
1950	150	-0.1
2000	150	-0.1
0	200	-0.1
50	200	-0.1
100	200	-0.1
150	200	-0.1
200	200	-0.1
250	200	-0.1
300	200	-0.1
350	200	-0.1
400	200	-0.1
450	200	-0.1
500	200	-0.1
550	200	-0.1
600	200	-0.1
650	200	-0.1
700	200	-0.1
750	200	-0.1
800	200	-0.1
850	200	-0.1
900	200	-0.1
950	200	-0.1
1000	200	-0.1
1050	200	-0.1
1100	200	-0.1
1150	200	-0.1
1200	200	-0.1
1250	200	-0.1
1300	200	-0.1
1350	200	-0.1
1400	200	-0.1
1450	200	-0.1
1500	200	-0.1
1550	200	-0.1
1600	200	-0.1
1650	200	-0.1
1700	200	-0.1
1750	200	-0.1
1800	200	-0.1
1850	200	-0.1
1900	200	-0.1
1950	200	-0.1
2000	200	-0.1
0	250	-0.1
50	250	-0.1
100	250	-0.1
150	250	-0.1
200	250	-0.1
250	250	-0.1
300	250	-0.1
350	250	-0.1
400	250	-0.1
450	250	-0.1
500	250	-0.1
550	250	-0.1
600	250	-0.1
650	250	-0.1
700	250	-0.1
750	250	-0.1
800	250	-0.1
850	250	-0.1
900	250	-0.1
950	250	-0.1
1000	250	-0.1
1050	250	-0.1
1100	250	-0.1
1150	250	-0.1
1200	250	-0.1
1250	250	-0.1
1300	250	-0.1
1350	250	-0.1
1400	250	-0.1
1450	250	-0.1
1500	250	-0.1
1550	250	-0.1
1600	250	-0.1
1650	250	-0.1
1700	250	-0.1
1750	250	-0.1
1800	250	-0.1
1850	250	-0.1
1900	250	-0.1
1950	250	-0.1
2000	250	-0.1
0	300	-0.1
50	300	-0.1
100	300	-0.1
150	300	-0.1
200	300	-0.1
250	300	-0.1
300	300	-0.1
350	300	-0.1
400	300	-0.1
450	300	-0.1
500	300	-0.1
550	300	-0.1
600	300	-0.1
650	300	-0.1
700	300	-0.1
750	300	-0.1
800	300	-0.1
850	300	-0.1
900	300	-0.1
950	300	-0.1
1000	300	-0.1
1050	300	-0.1
1100	300	-0.1
1150	300	-0.1
1200	300	-0.1
1250	300	-0.1
1300	300	-0.1
1350	300	-0.1
1400	300	-0.1
1450	300	-0.1
1500	300	-0.1
1550	300	-0.1
1600	300	-0.1
1650	300	-0.1
1700	300	-0.1
1750	300	-0.1
1800	300	-0.1
1850	300	-0.1
1900	300	-0.1
1950	300	-0.1
2000	300	-0.1
0	350	-0.1
50	350	-0.1
100	350	-0.1
150	350	-0.1
200	350	-0.1
250	350	-0.1
300	350	-0.1
350	350	-0.1
400	350	-0.1
450	350	-0.1
500	350	-0.1
550	350	-0.1
600	350	-0.1
650	350	-0.1
700	350	-0.1
750	350	-0.1
800	350	-0.1
850	350	-0.1
900	350	-0.1
950	350	-0.1
1000	350	-0.1
1050	350	-0.1
1100	350	-0.1
1150	350	-0.1
1200	350	-0.1
1250	350	-0.1
1300	350	-0.1
1350	350	-0.1
1400	350	-0.1
1450	350	-0.1
1500	350	-0.1
1550	350	-0.1
1600	350	-0.1
1650	350	-0.1
1700	350	-0.1
1750	350	-0.1
1800	350	-0.1
1850	350	-0.1
1900	350	-0.1
1950	350	-0.1
2000	350	-0.1
0	400	-0.1
50	400	-0.1
100	400	-0.1
150	400	-0.1
200	400	-0.1
250	400	-0.1
300	400	-0.1
350	400	-0.1
400	400	-0.1
450	400	-0.1
500	400	-0.1
550	400	-0.1
600	400	-0.1
650	400	-0.1
700	400	-0.1
750	400	-0.1
800	400	-0.1
850	400	-0.1
900	400	-0.1
950	400	-0.1
1000	400	-0.1
1050	400	-0.1
1100	400	-0.1
1150	400	-0.1
1200	400	-0.1
1250	400	-0.1
1300	400	-0.1
1350	400	-0.1
1400	400	-0.1
1450	400	-0.1
1500	400	-0.1
1550	400	-0.1
1600	400	-0.1
1650	400	-0.1
1700	400	-0.1
1750	400	-0.1
1800	400	-0.1
1850	400	-0.1
1900	400	-0.1
1950	400	-0.1
2000	400	-0.1
0	450	-0.1
50	450	-0.1
100	450	-0.1
150	450	-0.1
200	450	-0.1
250	450	-0.1
300	450	-0.1
350	450	-0.1
400	450	-0.1
450	450	-0.1
500	450	-0.1
550	450	-0.1
600	450	-0.1
650	450	-0.1
700	450	-0.1
750	450	-0.1
800	450	-0.1
850	450	-0.1
900	450	-0.1
950	450	-0.1
1000	450	-0.1
1050	450	-0.1
1100	450	-0.1
1150	450	-0.1
1200	450	-0.1
1250	450	-0.1
1300	450	-0.1
1350	450	-0.1
1400	450	-0.1
1450	450	-0.1
1500	450	-0.1
1550	450	-0.1
1600	450	-0.1
1650	450	-0.1
1700	450	-0.1
1750	450	-0.1
1800	450	-0.1
1850	450	-0.1
1900	450	-0.1
1950	450	-0.1
2000	450	-0.1
0	500	-0.1
50	500	-0.1
100	500	-0.1
150	500	-0.1
200	500	-0.1
250	500	-0.1
300	500	-0.1
350	500	-0.1
400	500	-0.1
450	500	-0.1
500	500	-0.1
550	500	-0.1
600	500	-0.1
650	500	-0.1
700	500	-0.1
750	500	-0.1
800	500	-0.1
850	500	-0.1
900	500	-0.1
950	500	-0.1
1000	500	-0.1
1050	500	-0.1
1100	500	-0.1
1150	500	-0.1
1200	500	-0.1
1250	500	-0.1
1300	500	-0.1
1350	500	-0.1
1400	500	-0.1
1450	500	-0.1
1500	500	-0.1
1550	500	-0.1
1600	500	-0.1
1650	500	-0.1
1700	500	-0.1
1750	500	-0.1
1800	500	-0.1
1850	500	-0.1
1900	500	-0.1
1950	500	-0.1
2000	500	-0.1
0	550	-0.1
50	550	-0.1
100	550	-0.1
150	550	-0.1
200	550	-0.1
250	550	-0.1
300	550	-0.1
350	550	-0.1
400	550	-0.1
450	550	-0.1
500	550	-0.1
550	550	-0.1
600	550	-0.1
650	550	-0.1
700	550	-0.1
750	550	-0.1
800	550	-0.1
850	550	-0.1
900	550	-0.1
950	550	-0.1
1000	550	-0.1
1050	550	-0.1
1100	550	-0.1
1150	550	-0.1
1200	550	-0.1
1250	550	-0.1
1300	550	-0.1
1350	550	-0.1
1400	550	-0.1
1450	550	-0.1
1500	550	-0.1
1550	550	-0.1
1600	550	-0.1
1650	550	-0.1
1700	550	-0.1
1750	550	-0.1
1800	550	-0.1
1850	550	-0.1
1900	550	-0.1
1950	550	-0.1
2000	550	-0.1
0	600	-0.1
50	600	-0.1
100	600	-0.1
150	600	-0.1
200	600	-0.1
250	600	-0.1
300	600	-0.1
350	600	-0.1
400	600	-0.1
450	600	-0.1
500	600	-0.1
550	600	-0.1
600	600	-0.1
650	600	-0.1
700	600	-0.1
750	600	-0.1
800	600	-0.1
850	600	-0.1
900	600	-0.1
950	600	-0.1
1000	600	-0.1
1050	600	-0.1
1100	600	-0.1
1150	600	-0.1
1200	600	-0.1
1250	600	-0.1
1300	600	-0.1
1350	600	-0.1
1400	600	-0.1
1450	600	-0.1
1500	600	-0.1
1550	600	-0.1
1600	600	-0.1
1650	600	-0.1
1700	600	-0.1
1750	600	-0.1
1800	600	-0.1
1850	600	-0.1
1900	600	-0.1
1950	600	-0.1
2000	600	-0.1
0	650	-0.1
50	650	-0.1
100	650	-0.1
150	650	-0.1
200	650	-0.1
250	650	-0.1
300	650	-0.1
350	650	-0.1
400	650	-0.1
450	650	-0.1
500	650	-0.1
550	650	-0.1
600	650	-0.1
650	650	-0.1
700	650	-0.1
750	650	-0.1
800	650	-0.1
850	650	-0.1
900	650	-0.1
950	650	-0.1
1000	650	-0.1
1050	650	-0.1
1100	650	-0.1
1150	650	-0.1
1200	650	-0.1
1250	650	-0.1
1300	650	-0.1
1350	650	-0.1
1400	650	-0.1
1450	650	-0.1
1500	650	-0.1
1550	650	-0.1
1600	650	-0.1
1650	650	-0.1
1700	650	-0.1
1750	650	-0.1
1800	650	-0.1
1850	650	-0.1
1900	650	-0.1
1950	650	-0.1
2000	650	-0.1
0	700	-0.1
50	700	-0.1
100	700	-0.1
150	700	-0.1
200	700	-0.1
250	700	-0.1
300	700	-0.1
350	700	-0.1
400	700	-0.1
450	700	-0.1
500	700	-0.1
550	700	-0.1
600	700	-0.1
650	700	-0.1
700	700	-0.1
750	700	-0.1
800	700	-0.1
850	700	-0.1
900	700	-0.1
950	700	-0.1
1000	700	-0.1
1050	700	-0.1
1100	700	-0.1
1150	700	-0.1
1200	700	-0.1
1250	700	-0.1
1300	700	-0.1
1350	700	-0.1
1400	700	-0.1
1450	700	-0.1
1500	700	-0.1
1550	700	-0.1
1600	700	-0.1
1650	700	-0.1
1700	700	-0.1
1750	700	-0.1
1800	700	-0.1
1850	700	-0.1
1900	700	-0.1
1950	700	-0.1
2000	700	-0.1
0	750	-0.1
50	750	-0.1
100	750	-0.1
150	750	-0.1
200	750	-0.1
250	750	-0.1
300	750	-0.1
350	750	-0.1
400	750	-0.1
450	750	-0.1
500	750	-0.1
550	750	-0.1
600	750	-0.1
650	750	-0.1
700	750	-0.1
750	750	-0.1
800	750	-0.1
850	750	-0.1
900	750	-0.1
950	750	-0.1
1000	750	-0.1
1050	750	-0.1
1100	750	-0.1
1150	750	-0.1
1200	750	-0.1
1250	750	-0.1
1300	750	-0.1
1350	750	-0.1
1400	750	-0.1
1450	750	-0.1
1500	750	-0.1
1550	750	-0.1
1600	750	-0.1
1650	750	-0.1
1700	750	-0.1
1750	750	-0.1
1800	750	-0.1
1850	750	-0.1
1900	750	-0.1
1950	750	-0.1
2000	750	-0.1
0	800	-0.1
50	800	-0.1
100	800	-0.1
150	800	-0.1
200	800	-0.1
250	800	-0.1
300	800	-0.1
350	800	-0.1
400	800	-0.1
450	800	-0.1
500	800	-0.1
550	800	-0.1
600	800	-0.1
650	800	-0.1
700	800	-0.1
750	800	-0.1
800	800	-0.1
850	800	-0.1
900	800	-0.1
950	800	-0.1
1000	800	-0.1
1050	800	-0.1
1100	800	-0.1
1150	800	-0.1
1200	800	-0.1
1250	800	-0.1
1300	800	-0.1
1350	800	-0.1
1400	800	-0.1
1450	800	-0.1
1500	800	-0.1
1550	800	-0.1
1600	800	-0.1
1650	800	-0.1
1700	800	-0.1
1750	800	-0.1
1800	800	-0.1
1850	800	-0.1
1900	800	-0.1
1950	800	-0.1
2000	800	-0.1
0	850	-0.1
50	850	-0.1
100	850	-0.1
150	850	-0.1
200	850	-0.1
250	850	-0.1
300	850	-0.1
350	850	-0.1
400	850	-0.1
450	850	-0.1
500	850	-0.1
550	850	-0.1
600	850	-0.1
650	850	-0.1
700	850	-0.1
750	850	-0.1
800	850	-0.1
850	850	-0.1
900	850	-0.1
950	850	-0.1
1000	850	-0.1
1050	850	-0.1
1100	850	-0.1
1150	850	-0.1
1200	850	-0.1
1250	850	-0.1
1300	850	-0.1
1350	850	-0.1
1400	850	-0.1
1450	850	-0.1
1500	850	-0.1
1550	850	-0.1
1600	850	-0.1
1650	850	-0.1
1700	850	-0.1
1750	850	-0.1
1800	850	-0.1
1850	850	-0.1
1900	850	-0.1
1950	850	-0.1
2000	850	-0.1
0	900	-0.1
50	900	-0.1
100	900	-0.1
150	900	-0.1
200	900	-0.1
250	900	-0.1
300	900	-0.1
350	900	-0.1
[...]
CELL_DATA	1681
SCALARS T_zz double 1
LOOKUP_TABLE table0
-0.449536
-0.472567
-0.495292
-0.517662
-0.537696
-0.554463
-0.567278
-0.574667
-0.577788
-0.575147
-0.565071
-0.548843
-0.528099
-0.505069
-0.4815
-0.458118
-0.434495
-0.411207
-0.38823
-0.36394
-0.339661
-0.315863
-0.292032
-0.267356
-0.240715
-0.210839
-0.17803
-0.144504
-0.108187
-0.0709292
-0.0355676
-0.00204094
0.0274964
0.0521764
0.0718138
0.0860164
0.0944745
0.0983387
0.0988309
0.0958312
0.0895334
-0.480436
-0.506374
-0.531835
-0.556759
-0.577692
-0.593962
-0.605284
-0.609001
-0.607394
-0.597863
-0.577757
-0.550052
-0.51785
-0.485035
-0.454676
-0.428336
-0.405523
-0.387621
-0.37456
-0.362646
-0.35327
-0.345481
-0.336968
-0.326174
-0.311354
-0.289653
-0.260702
-0.228093
-0.187222
-0.141509
-0.0962146
-0.050643
-0.0087573
0.0275792
0.0575975
0.080142
0.0942648
0.101893
0.10519
0.103839
0.0981534
-0.512642
-0.541134
-0.568559
-0.594704
-0.615622
-0.629606
-0.635517
-0.630588
-0.617164
-0.592449
-0.554116
-0.506761
-0.455887
-0.407614
-0.366801
-0.336571
-0.317806
-0.312571
-0.319899
-0.333747
-0.353319
-0.376554
-0.399637
-0.417964
-0.426816
-0.422292
-0.404194
-0.37587
-0.331943
-0.27555
-0.213172
-0.146809
-0.0833363
-0.0266484
0.0212478
0.058314
0.0832771
0.0985406
0.107027
0.108866
0.104616
-0.545949
-0.576509
-0.604942
-0.630691
-0.649047
-0.656944
-0.652121
-0.631474
-0.597102
-0.545713
-0.475646
-0.394467
-0.311833
-0.237487
-0.179274
-0.143232
-0.132865
-0.151482
-0.196539
-0.257774
-0.330313
-0.409903
-0.490236
-0.561948
-0.615512
-0.644845
-0.649147
-0.630617
-0.582401
-0.507556
-0.415318
-0.31294
-0.212669
-0.121885
-0.0444601
0.0163467
0.0588927
0.0864576
0.103275
0.110279
0.108536
-0.579487
-0.611115
-0.639457
-0.662945
-0.676076
-0.673439
-0.65062
-0.603943
-0.534314
-0.437369
-0.312447
-0.171718
-0.0330305
0.0876845
0.17714
0.222591
0.21629
0.153634
0.0406497
-0.104748
-0.269687
-0.446655
-0.626282
-0.791615
-0.927212
-1.02105
-1.06807
-1.06859
-1.01274
-0.904324
-0.758653
-0.592919
-0.430582
-0.283936
-0.158344
-0.0595905
0.0118819
0.0598281
0.0895093
0.104548
0.107961
-0.61246
-0.644232
-0.670968
-0.689725
-0.693575
-0.673864
-0.622875
-0.534922
-0.408006
-0.235177
-0.0165037
0.229131
0.470582
0.678196
0.825377
0.8869
0.848487
0.705719
0.472529
0.180175
-0.14521
-0.489111
-0.836981
-1.16276
-1.44232
-1.65269
-1.77862
-1.81381
-1.74322
-1.57303
-1.33082
-1.05299
-0.782783
-0.542092
-0.338696
-0.180123
-0.0643551
0.0142971
0.0635641
0.090919
0.102148
-0.643846
-0.674898
-0.69818
-0.709318
-0.698703
-0.653507
-0.561239
-0.411223
-0.195421
0.0990594
0.472961
0.898173
1.32311
1.6895
1.94156
2.03254
1.93806
1.65662
1.21804
0.676993
0.0815595
-0.539221
-1.16232
-1.75372
-2.27677
-2.68933
-2.95501
-3.05051
-2.95183
-2.67029
-2.25674
-1.78383
-1.32892
-0.932401
-0.606179
-0.355945
-0.175644
-0.05367
0.023875
0.0690108
0.0905531
-0.672394
-0.701397
-0.719469
-0.720323
-0.690565
-0.611284
-0.462413
-0.224155
0.123521
0.605928
1.22806
1.94981
2.68714
3.32935
3.76557
3.91275
3.73068
3.22242
2.44608
1.49815
0.465931
-0.595843
-1.65333
-2.66905
-3.59357
-4.34741
-4.84913
-5.0442
-4.89244
-4.41607
-3.70924
-2.90787
-2.14882
-1.50348
-0.988091
-0.602002
-0.329628
-0.147989
-0.0325528
0.0361772
0.0716792
-0.698513
-0.724811
-0.736195
-0.72438
-0.671665
-0.550038
-0.327373
0.0308177
0.570596
1.3377
2.34416
3.53922
4.785
5.8873
6.64046
6.89278
6.58211
5.71411
4.39686
2.80538
1.08544
-0.660855
-2.38182
-4.05398
-5.63401
-6.95774
-7.83805
-8.18334
-7.93122
-7.12622
-5.94073
-4.61241
-3.3557
-2.3085
-1.50957
-0.929141
-0.529241
-0.267713
-0.104512
-0.00657862
0.0459541
-0.722353
-0.74531
-0.748797
-0.721918
-0.641566
-0.46858
-0.154727
0.357416
1.15466
2.32163
3.89017
5.8041
7.86419
9.7338
11.0436
11.4939
10.9304
9.43923
7.28266
4.73409
2.01123
-0.722159
-3.39986
-6.04006
-8.62414
-10.8367
-12.3044
-12.8598
-12.3898
-11.0252
-9.10134
-6.9855
-4.99893
-3.37233
-2.17382
-1.33276
-0.770466
-0.411151
-0.190891
-0.0588055
0.013512
-0.744245
-0.763435
-0.758471
-0.714899
-0.602852
-0.371645
0.0452635
0.736397
1.84039
3.50576
5.80783
8.70548
11.9625
14.9966
17.1542
17.895
16.8676
14.3894
11.0533
7.23101
3.21531
-0.776505
-4.68986
-8.62817
-12.5997
-16.0554
-18.3539
-19.1722
-18.312
-16.0955
-13.1285
-9.93774
-6.99696
-4.63598
-2.93693
-1.78444
-1.03791
-0.571177
-0.287893
-0.11868
-0.0247999
-0.765117
-0.781293
-0.768644
-0.709072
-0.566062
-0.277624
0.241461
1.11335
2.53571
4.7343
7.84624
11.87
16.5376
20.9381
24.0541
25.1146
23.5952
20.0222
15.2937
9.97387
4.51809
-0.841564
-6.11666
-11.532
-17.1313
-22.0432
-25.2814
-26.408
-25.1849
-22.0482
-17.7869
-13.2267
-9.13851
-5.94326
-3.70617
-2.23485
-1.30498
-0.732177
-0.386821
-0.181316
-0.0665151
-0.784257
-0.798173
-0.780055
-0.708041
-0.539061
-0.202278
0.402759
1.42852
3.13128
5.80558
9.65231
14.7381
20.7702
26.4644
30.4213
31.7687
29.9457
25.4896
19.3526
12.4742
5.66517
-0.917385
-7.43271
-14.2394
-21.4262
-27.7484
-31.865
-33.3475
-31.9841
-28.1155
-22.4651
-16.3471
-11.079
-7.09985
-4.3767
-2.63119
-1.54264
-0.876432
-0.478354
-0.242071
-0.109301
-0.801633
-0.814936
-0.794462
-0.715573
-0.530375
-0.16206
0.500209
1.62996
3.52482
6.5253
10.88
16.7195
23.7413
30.3623
34.8865
36.4302
34.4698
29.4621
22.2917
14.2401
6.4512
-0.990846
-8.3714
-16.1541
-24.4606
-31.7664
-36.482
-38.2176
-36.8098
-32.475
-25.8101
-18.5386
-12.4316
-7.91103
-4.85411
-2.92038
-1.7206
-0.988616
-0.554321
-0.296783
-0.151138
-0.817242
-0.832217
-0.812834
-0.73357
-0.544977
-0.167516
0.514196
1.6815
3.64451
6.75964
11.2918
17.3885
24.7399
31.6699
36.3894
38.0152
36.0342
30.8661
23.3702
14.9155
6.74588
-1.03695
-8.72833
-16.8214
-25.4604
-33.0488
-37.9425
-39.7306
-38.2509
-33.7517
-26.8256
-19.2855
-12.946
-8.2398
-5.07058
-3.06394
-1.81808
-1.05937
-0.609835
-0.342885
-0.190678
-0.830424
-0.848725
-0.833951
-0.76108
-0.581889
-0.21921
0.43844
1.56571
3.46072
6.46186
10.8124
16.6332
23.6184
30.2167
34.7588
36.352
34.4455
29.4846
22.354
14.2967
6.44773
-1.0478
-8.42584
-16.1496
-24.3743
-31.5954
-36.2733
-37.9667
-36.4843
-32.1589
-25.613
-18.5244
-12.5241
-8.02809
-4.98933
-3.04691
-1.83
-1.08541
-0.643196
-0.379293
-0.226979
-0.842199
-0.866027
-0.859226
-0.799164
-0.640454
-0.314176
0.277893
1.29054
2.97476
5.63685
9.48144
14.5437
20.5266
26.1999
30.1989
31.6244
29.8734
25.4539
19.3253
12.4284
5.57566
-1.03012
-7.52621
-14.3069
-21.4441
-27.6981
-31.7976
-33.2809
-31.989
-28.2211
-22.5728
-16.4656
-11.2312
-7.28289
-4.59804
-2.85647
-1.75139
-1.06742
-0.654812
-0.406225
-0.259562
-0.852327
-0.883028
-0.886966
-0.844938
-0.716189
-0.443069
0.0541347
0.900464
2.28256
4.45327
7.56653
11.576
16.212
20.6123
23.7762
24.9153
23.471
19.9186
15.1653
9.82831
4.38938
-0.925754
-6.16795
-11.6225
-17.249
-22.1593
-25.4495
-26.668
-25.6919
-22.7419
-18.3289
-13.5385
-9.34419
-6.15242
-3.96809
-2.52544
-1.59377
-1.00629
-0.64358
-0.421788
-0.287087
-0.860166
-0.897892
-0.914134
-0.893109
-0.800433
-0.589504
-0.199226
0.461626
1.52029
3.15243
5.4541
8.35508
11.6431
14.7208
16.896
17.6858
16.7395
14.3118
10.9876
7.18578
3.2418
-0.660212
-4.52955
-8.50604
-12.5062
-15.9711
-18.3177
-19.2194
-18.583
-16.5507
-13.4967
-10.1474
-7.16609
-4.85051
-3.21919
-2.11627
-1.38501
-0.912048
-0.613988
-0.427748
-0.310551
-0.865898
-0.910593
-0.939144
-0.939192
-0.882635
-0.73347
-0.447753
0.0351259
0.788348
1.91884
3.4806
5.40841
7.55902
9.51828
10.8237
11.3097
10.8606
9.49565
7.4489
5.0072
2.42476
-0.173472
-2.77699
-5.40407
-7.94311
-10.1189
-11.6208
-12.2451
-11.9259
-10.7386
-8.93344
-6.91025
-5.05676
-3.56265
-2.45676
-1.68572
-1.15786
-0.806171
-0.579011
-0.43237
-0.334509
-0.869135
-0.92018
-0.959795
-0.978692
-0.955053
-0.862003
-0.669612
-0.341275
0.164185
0.902354
1.89795
3.10752
4.42987
5.62658
6.43713
6.79907
6.69134
6.06747
4.99963
3.65988
2.19621
0.669309
-0.911072
-2.51503
-4.03243
-5.34156
-6.30719
-6.78815
-6.73245
-6.18225
-5.28597
-4.24077
-3.23369
-2.38753
-1.73723
-1.26577
-0.930305
-0.6979
-0.541118
-0.434222
-0.358218
-0.869645
-0.926173
-0.975095
-1.00969
-1.01365
-0.967814
-0.852943
-0.648305
-0.327823
0.135757
0.752157
1.49785
2.30063
3.0613
3.67455
4.07405
4.23702
4.14468
3.82487
3.34548
2.75178
2.054
1.25404
0.382326
-0.487609
-1.29022
-1.9558
-2.39716
-2.58378
-2.53128
-2.30021
-1.97808
-1.63687
-1.32753
-1.07199
-0.869966
-0.712884
-0.593693
-0.504844
-0.436826
-0.382514
-0.867456
-0.928635
-0.985052
-1.03197
-1.05721
-1.04807
-0.993173
-0.880438
-0.69343
-0.412984
-0.0297519
0.44611
0.979421
1.54375
2.11131
2.64507
3.12859
3.55418
3.9129
4.1743
4.29685
4.2628
4.07345
3.74529
3.31846
2.82181
2.29127
1.78458
1.31785
0.886058
0.486952
0.135011
-0.141059
-0.329942
-0.441402
-0.494486
-0.506352
-0.494437
-0.471477
-0.441744
-0.407032
-0.86263
-0.927779
-0.989873
-1.04553
-1.08579
-1.10296
-1.09081
-1.04138
-0.941483
-0.773533
-0.524452
-0.190515
0.222373
0.734746
1.37259
2.1412
3.04975
4.10052
5.24513
6.31554
7.14858
7.71633
8.0359
8.12142
7.99447
7.66048
7.12863
6.43854
5.59209
4.57691
3.44578
2.33289
1.38611
0.674505
0.186271
-0.124215
-0.303428
-0.395755
-0.435913
-0.443108
-0.428345
-0.852971
-0.919635
-0.985667
-1.04668
-1.09892
-1.13576
-1.15155
-1.14243
-1.09611
-0.993234
-0.814745
-0.543977
-0.157355
0.399473
1.19635
2.29245
3.73681
5.58051
7.75584
9.86027
11.5511
12.7747
13.5593
13.9669
14.0295
13.7487
13.1046
12.115
10.7417
8.95317
6.88894
4.83659
3.06143
1.72216
0.819692
0.238213
-0.110721
-0.304723
-0.403583
-0.444726
-0.448523
-0.839065
-0.906189
-0.974676
-1.03874
-1.09905
-1.14898
-1.18207
-1.19714
-1.18149
-1.11315
-0.967046
-0.714594
-0.305336
0.345891
1.35482
2.8498
4.94412
7.75004
11.1805
14.5247
17.1901
19.1365
20.4455
21.1785
21.3381
21.0244
20.2637
18.9438
16.8547
14.0165
10.7788
7.59706
4.85473
2.8024
1.44467
0.579659
0.0622673
-0.227597
-0.379185
-0.449793
-0.469472
-0.821673
-0.889562
-0.959277
-1.02518
-1.08895
-1.14555
-1.18938
-1.21852
-1.21889
-1.16692
-1.03322
-0.778757
-0.333793
0.418503
1.64574
3.56025
6.37353
10.2327
15.0219
19.6828
23.3217
26.0055
27.89
28.9598
29.1238
28.6971
27.8657
26.2345
23.2801
19.172
14.6308
10.2689
6.56157
3.81444
2.00643
0.871635
0.201821
-0.170676
-0.366267
-0.46028
-0.492194
-0.799335
-0.866495
-0.936318
-1.00326
-1.0694
-1.13041
-1.18078
-1.21755
-1.22568
-1.18111
-1.05224
-0.79306
-0.320011
0.507548
1.8989
4.13934
7.52617
12.2218
18.0803
23.767
28.1542
31.4105
33.7531
35.0878
35.2301
34.704
33.8578
32.0162
28.3458
23.1783
17.5909
12.3069
7.84921
4.56285
2.40884
1.07082
0.288971
-0.142636
-0.368573
-0.477858
-0.517131
-0.775049
-0.841605
-0.910581
-0.977723
-1.04406
-1.10659
-1.16059
-1.20103
-1.21489
-1.17679
-1.05325
-0.798109
-0.317772
0.535136
1.98353
4.34533
7.94936
12.9528
19.1884
25.243
29.9037
33.3652
35.8788
37.3138
37.4578
36.9194
36.1058
34.2177
30.2778
24.7009
18.7149
13.0773
8.33632
4.84465
2.55223
1.13199
0.305472
-0.149049
-0.386636
-0.501162
-0.543027
-0.750045
-0.81552
-0.883079
-0.94973
-1.01533
-1.07809
-1.13417
-1.17679
-1.19568
-1.16528
-1.05249
-0.815481
-0.359196
0.454378
1.83179
4.07182
7.47595
12.1732
18.0011
23.6901
28.1395
31.46
33.8134
35.1342
35.2857
34.793
33.9955
32.1801
28.4796
23.2584
17.638
12.3364
7.87312
4.57539
2.39615
1.03797
0.244467
-0.192659
-0.421301
-0.530527
-0.569574
-0.72473
-0.787803
-0.853594
-0.919138
-0.984278
-1.0475
-1.10508
-1.15026
-1.17368
-1.15243
-1.05734
-0.852009
-0.451292
0.262861
1.45833
3.36384
6.20257
10.0434
14.7289
19.3701
23.1647
26.0441
28.0102
29.0851
29.2581
28.8672
28.1222
26.5446
23.548
19.3556
14.7538
10.3574
6.62589
3.844
1.98676
0.811957
0.116916
-0.268848
-0.470674
-0.565438
-0.596288
-0.700286
-0.760746
-0.824203
-0.887747
-0.951338
-1.01395
-1.07251
-1.12084
-1.15087
-1.1423
-1.07012
-0.905204
-0.577001
0.00438194
0.957035
2.42725
4.5504
7.33498
10.6378
13.9794
16.8885
19.1501
20.628
21.4142
21.6026
21.3312
20.6787
19.4244
17.2903
14.3528
11.0262
7.78167
4.98586
2.86924
1.43473
0.507037
-0.0516876
-0.364801
-0.528146
-0.602041
-0.621177
-0.675908
-0.733421
-0.793769
-0.854262
-0.916274
-0.978233
-1.03679
-1.08805
-1.12496
-1.13009
-1.08287
-0.961255
-0.715625
-0.279762
0.424499
1.47651
2.94755
4.81983
6.98575
9.20606
11.2103
12.7983
13.8378
14.4007
14.5752
14.396
13.8716
12.9368
11.5176
9.61741
7.42029
5.24425
3.34435
1.87791
0.856182
0.178819
-0.233786
-0.465166
-0.585295
-0.635059
-0.641439
-0.650825
-0.705011
-0.761751
-0.818593
-0.878316
-0.938757
-0.996348
-1.04967
-1.0928
-1.11114
-1.08824
-1.00845
-0.841421
-0.540099
-0.0549437
0.649531
1.60995
2.80007
4.14278
5.52166
6.76398
7.76012
8.46117
8.86916
9.01433
8.90783
8.5466
7.9171
7.02384
5.86181
4.50804
3.15434
1.95903
1.0157
0.335376
-0.125644
-0.405906
-0.560095
-0.637829
-0.663024
-0.656047
-0.624566
-0.675178
-0.728332
-0.781745
-0.838263
-0.896024
-0.952181
-1.00652
-1.05488
-1.085
-1.08369
-1.04103
-0.937669
-0.744428
-0.433952
0.00794762
0.604067
1.32887
2.1297
2.95328
3.69416
4.29512
4.73627
5.00461
5.11138
5.05413
4.8272
4.43309
3.89753
3.21737
2.42511
1.63154
0.916466
0.338355
-0.0855479
-0.377021
-0.551445
-0.642413
-0.682678
-0.685221
-0.664569
-0.596942
-0.643961
-0.693849
-0.744617
-0.799016
-0.854927
-0.909673
-0.964082
-1.01581
-1.05483
-1.07063
-1.05751
-1.00398
-0.892835
-0.709904
-0.451093
-0.0979095
0.328198
0.791626
1.27153
1.70004
2.05124
2.32005
2.48798
2.55839
2.52962
2.39878
2.1669
1.85968
1.4752
1.02831
0.585951
0.181144
-0.151734
-0.396285
-0.565012
-0.660991
-0.704062
-0.714768
-0.698378
-0.665767
-0.56893
-0.613142
-0.660057
-0.708913
-0.760902
-0.814466
-0.867885
-0.92149
-0.973793
-1.0176
-1.04524
-1.05285
-1.03414
-0.979712
-0.882735
-0.743051
-0.550095
-0.315031
-0.0569724
0.212935
0.458104
0.66275
0.822062
0.925057
0.97153
0.961201
0.893067
0.766044
0.59342
0.380037
0.139594
-0.092948
-0.306255
-0.48216
-0.609523
-0.69594
-0.73868
-0.748997
-0.738862
-0.708076
-0.663047
-0.540815
-0.582329
-0.626404
-0.673487
-0.723171
-0.77435
-0.826091
-0.878004
-0.929186
-0.974944
-1.00986
-1.03081
-1.03479
-1.01717
-0.975023
-0.909211
-0.815951
-0.697788
-0.562404
-0.419318
-0.282861
-0.165954
-0.0759407
-0.014239
0.0171552
0.0175605
-0.0132903
-0.0758129
-0.167371
-0.278741
-0.396203
-0.506457
-0.606779
-0.687617
-0.742253
-0.776133
-0.784408
-0.773287
-0.749097
-0.708226
-0.653748
-0.513205
-0.551523
-0.592757
-0.637591
-0.685413
-0.734571
-0.783808
-0.833139
-0.882735
-0.929207
-0.968265
-0.997895
-1.01685
-1.02306
-1.01532
-0.99441
-0.955819
-0.901739
-0.838107
-0.76951
-0.703077
-0.644769
-0.597639
-0.562159
-0.541037
-0.535477
-0.545327
-0.569943
-0.60725
-0.652314
-0.698288
-0.738779
-0.776067
-0.802816
-0.813153
-0.81349
-0.798833
-0.772884
-0.738916
-0.691876
-0.634501
-0.487772
-0.523315
-0.561671
-0.603603
-0.648445
-0.694437
-0.740302
-0.786314
-0.833337
-0.879032
-0.920166
-0.955589
-0.9849
-1.00683
-1.02047
-1.02618
-1.01912
-1.00139
-0.977954
-0.950568
-0.922557
-0.896721
-0.874207
-0.854601
-0.840368
-0.832716
-0.831296
-0.835063
-0.842479
-0.85115
-0.858055
-0.860384
-0.862703
-0.858506
-0.842274
-0.8211
-0.790441
-0.753593
-0.713189
-0.663921
-0.607971
-0.464111
-0.496807
-0.532338
-0.57098
-0.612014
-0.654029
-0.696079
-0.738425
-0.781821
-0.825234
-0.866874
-0.905799
-0.941408
-0.972699
-0.998738
-1.01898
-1.03022
-1.03304
-1.03014
-1.02316
-1.01426
-1.00462
-0.994371
-0.983395
-0.973358
-0.965116
-0.958281
-0.951794
-0.944511
-0.935297
-0.922911
-0.906119
-0.887312
-0.863514
-0.832492
-0.798463
-0.759691
-0.71798
-0.67451
-0.626638
-0.57613
SCALARS T_xz double 1
LOOKUP_TABLE table1
0.404918
0.436881
0.467113
0.494009
0.520094
0.52916
0.529914
0.512946
0.470865
0.410739
0.318668
0.19538
0.0414463
-0.139084
-0.338103
-0.545234
-0.746755
-0.937697
-1.09926
-1.22453
-1.3115
-1.34221
-1.32649
-1.2603
-1.15324
-1.00035
-0.825921
-0.635634
-0.433383
-0.253738
-0.0841111
0.0609522
0.176858
0.265057
0.324944
0.360067
0.373243
0.373818
0.360739
0.3388
0.311589
0.477243
0.520674
0.563779
0.604708
0.649938
0.669233
0.682819
0.674916
0.632885
0.57202
0.465469
0.31484
0.11998
-0.11426
-0.3769
-0.653643
-0.923812
-1.18409
-1.40323
-1.57259
-1.69214
-1.72927
-1.70573
-1.61349
-1.46879
-1.25652
-1.01891
-0.760893
-0.48358
-0.24927
-0.0271384
0.158254
0.300708
0.40459
0.469062
0.500552
0.503074
0.493148
0.466521
0.430493
0.389782
0.560324
0.618824
0.679105
0.739196
0.805375
0.846354
0.880383
0.88897
0.856675
0.795484
0.67419
0.490689
0.24339
-0.0616761
-0.410145
-0.782462
-1.15108
-1.50468
-1.80389
-2.03417
-2.19247
-2.24433
-2.20998
-2.08138
-1.87783
-1.58923
-1.26339
-0.910946
-0.539825
-0.22013
0.0724171
0.309249
0.483675
0.602224
0.667244
0.688842
0.674972
0.645583
0.598568
0.542531
0.483189
0.654979
0.732555
0.815139
0.900825
0.995879
1.06809
1.13319
1.16931
1.15712
1.10331
0.969796
0.748297
0.434459
0.0355953
-0.429598
-0.934069
-1.43991
-1.9236
-2.33385
-2.64773
-2.85856
-2.93033
-2.8812
-2.7028
-2.41809
-2.02335
-1.57392
-1.08888
-0.586669
-0.149226
0.237383
0.538929
0.74915
0.879199
0.936957
0.938357
0.897122
0.837773
0.761196
0.677538
0.593495
0.762979
0.862452
0.973176
1.09213
1.22467
1.34191
1.45283
1.53281
1.55805
1.52504
1.38715
1.12475
0.724453
0.204178
-0.421509
-1.11062
-1.80862
-2.47396
-3.03746
-3.46494
-3.74327
-3.84394
-3.77497
-3.5298
-3.13999
-2.59293
-1.96982
-1.29742
-0.609863
-0.0102841
0.501782
0.883298
1.12611
1.26364
1.30022
1.26523
1.18514
1.07681
0.958573
0.837839
0.725519
0.882166
1.00822
1.15354
1.31463
1.49667
1.67465
1.85111
1.99828
2.08638
2.09816
1.97264
1.67183
1.16699
0.483864
-0.364378
-1.31324
-2.28147
-3.19957
-3.97309
-4.55336
-4.92106
-5.0574
-4.96198
-4.62952
-4.0976
-3.34322
-2.47627
-1.53835
-0.589347
0.235489
0.914461
1.39274
1.66403
1.79158
1.78335
1.68723
1.54549
1.36898
1.19387
1.02454
0.875455
1.00948
1.16833
1.35488
1.5677
1.8142
2.07044
2.33749
2.58363
2.7709
2.86602
2.78331
2.45623
1.83253
0.929559
-0.226597
-1.53971
-2.88658
-4.15398
-5.21219
-5.99417
-6.47897
-6.65445
-6.5248
-6.08277
-5.35938
-4.33101
-3.12395
-1.81144
-0.495603
0.641611
1.54084
2.13251
2.42315
2.50507
2.41469
2.22132
1.98233
1.71775
1.46764
1.23651
1.03775
1.14392
1.33958
1.57342
1.84729
2.17251
2.52813
2.91583
3.30169
3.63919
3.87342
3.88311
3.55709
2.80103
1.61228
0.0352527
-1.78268
-3.65378
-5.3984
-6.83507
-7.87544
-8.50269
-8.72106
-8.54954
-7.97868
-7.01671
-5.62244
-3.94611
-2.11144
-0.285749
1.27608
2.46017
3.179
3.46209
3.44795
3.22008
2.87969
2.50355
2.12148
1.77599
1.46945
1.21205
1.27999
1.51689
1.80295
2.14592
2.5606
3.03943
3.58039
4.15406
4.72103
5.15608
5.33177
5.05735
4.14501
2.6196
0.469259
-2.03337
-4.59421
-7.00042
-8.91815
-10.273
-11.0824
-11.3237
-11.1055
-10.3986
-9.20363
-7.28415
-4.96013
-2.42213
0.0825416
2.21553
3.75237
4.60566
4.89455
4.6551
4.2132
3.66236
3.10996
2.57067
2.10933
1.71487
1.39044
1.41405
1.69359
2.03482
2.45253
2.96677
3.58622
4.30981
5.11888
5.98601
6.71274
7.15245
7.01472
5.97479
4.04107
1.1489
-2.29475
-5.80051
-9.0195
-11.4921
-13.1956
-14.1929
-14.4532
-14.195
-13.3705
-11.92
-9.35479
-6.18842
-2.71017
0.692452
3.52585
5.46606
6.44343
6.67537
6.12046
5.37551
4.54456
3.76931
3.04446
2.45104
1.95986
1.56403
1.54158
1.86143
2.25774
2.75157
3.37166
4.13749
5.06108
6.13875
7.34852
8.46387
9.27007
9.37984
8.29089
5.86849
2.02317
-2.56737
-7.23093
-11.4058
-14.4597
-16.5062
-17.6509
-17.9434
-17.6714
-16.7839
-14.9413
-11.7745
-7.61747
-2.95363
1.47698
5.18883
7.56828
8.63782
8.6726
7.76272
6.63243
5.46455
4.42682
3.5088
2.77677
2.18692
1.72116
1.65467
2.01113
2.45823
3.02326
3.74363
4.65019
5.77051
7.12047
8.69016
10.2314
11.4658
11.9025
10.8117
7.86701
3.0034
-2.78683
-8.6613
-13.8684
-17.5496
-19.8919
-21.1194
-21.4314
-21.1825
-20.2979
-18.1001
-14.2921
-9.08873
-3.21384
2.28634
6.99589
9.91058
11.0261
10.7595
9.4127
7.84814
6.32458
5.02369
3.9186
3.05567
2.37486
1.84635
1.74973
2.13369
2.62259
3.24688
4.05459
5.07679
6.36542
7.95284
9.86142
11.7735
13.4196
14.1981
13.1001
9.69204
3.9612
-2.87828
-9.84169
-15.9959
-20.331
-22.894
-24.088
-24.4226
-24.2256
-23.3989
-20.9381
-16.5308
-10.4464
-3.53778
3.10452
8.61766
12.0593
13.2721
12.5315
10.8256
8.84984
7.01018
5.49806
4.2244
3.25461
2.50164
1.92566
1.81947
2.22161
2.73934
3.40456
4.27363
5.37477