# vtk DataFile Version 3.0
Gravity effects
ASCII
DATASET UNSTRUCTURED_GRID

POINTS	1681	double
0	0	-0.1
50	0	-0.1
100	0	-0.1
150	0	-0.1
200	0	-0.1
250	0	-0.1
300	0	-0.1
350	0	-0.1
400	0	-0.1
450	0	-0.1
500	0	-0.1
550	0	-0.1
600	0	-0.1
650	0	-0.1
700	0	-0.1
750	0	-0.1
800	0	-0.1
850	0	-0.1
900	0	-0.1
950	0	-0.1
1000	0	-0.1
1050	0	-0.1
1100	0	-0.1
1150	0	-0.1
1200	0	-0.1
1250	0	-0.1
1300	0	-0.1
1350	0	-0.1
1400	0	-0.1
1450	0	-0.1
1500	0	-0.1
1550	0	-0.1
1600	0	-0.1
1650	0	-0.1
1700	0	-0.1
1750	0	-0.1
1800	0	-0.1
1850	0	-0.1
1900	0	-0.1
1950	0	-0.1
2000	0	-0.1
0	50	-0.1
50	50	-0.1
100	50	-0.1
150	50	-0.1
200	50	-0.1
250	50	-0.1
300	50	-0.1
350	50	-0.1
400	50	-0.1
450	50	-0.1
500	50	-0.1
550	50	-0.1
600	50	-0.1
650	50	-0.1
700	50	-0.1
750	50	-0.1
800	50	-0.1
850	50	-0.1
900	50	-0.1
950	50	-0.1
1000	50	-0.1
1050	50	-0.1
1100	50	-0.1
1150	50	-0.1
1200	50	-0.1
1250	50	-0.1
1300	50	-0.1
1350	50	-0.1
1400	50	-0.1
1450	50	-0.1
1500	50	-0.1
1550	50	-0.1
1600	50	-0.1
1650	50	-0.1
1700	50	-0.1
1750	50	-0.1
1800	50	-0.1
1850	50	-0.1
1900	50	-0.1
1950	50	-0.1
2000	50	-0.1
0	100	-0.1
50	100	-0.1
100	100	-0.1
150	100	-0.1
200	100	-0.1
250	100	-0.1
300	100	-0.1
350	100	-0.1
400	100	-0.1
450	100	-0.1
500	100	-0.1
550	100	-0.1
600	100	-0.1
650	100	-0.1
700	100	-0.1
750	100	-0.1
800	100	-0.1
850	100	-0.1
900	100	-0.1
950	100	-0.1
1000	100	-0.1
1050	100	-0.1
1100	100	-0.1
1150	100	-0.1
1200	100	-0.1
1250	100	-0.1
1300	100	-0.1
1350	100	-0.1
1400	100	-0.1
1450	100	-0.1
1500	100	-0.1
1550	100	-0.1
1600	100	-0.1
1650	100	-0.1
1700	100	-0.1
1750	100	-0.1
1800	100	-0.1
1850	100	-0.1
1900	100	-0.1
1950	100	-0.1
2000	100	-0.1
0	150	-0.1
50	150	-0.1
100	150	-0.1
150	150	-0.1
200	150	-0.1
250	150	-0.1
300	150	-0.1
350	150	-0.1
400	150	-0.1
450	150	-0.1
500	150	-0.1
550	150	-0.1
600	150	-0.1
650	150	-0.1
700	150	-0.1
750	150	-0.1
800	150	-0.1
850	150	-0.1
900	150	-0.1
950	150	-0.1
1000	150	-0.1
1050	150	-0.1
1100	150	-0.1
1150	150	-0.1
1200	150	-0.1
1250	150	-0.1
1300	150	-0.1
1350	150	-0.1
1400	150	-0.1
1450	150	-0.1
1500	150	-0.1
1550	150	-0.1
1600	150	-0.1
1650	150	-0.1
1700	150	-0.1
1750	150	-0.1
1800	150	-0.1
1850	150	-0.1
1900	150	-0.1
1950	150	-0.1
2000	150	-0.1
0	200	-0.1
50	200	-0.1
100	200	-0.1
150	200	-0.1
200	200	-0.1
250	200	-0.1
300	200	-0.1
350	200	-0.1
400	200	-0.1
450	200	-0.1
500	200	-0.1
550	200	-0.1
600	200	-0.1
650	200	-0.1
700	200	-0.1
750	200	-0.1
800	200	-0.1
850	200	-0.1
900	200	-0.1
950	200	-0.1
1000	200	-0.1
1050	200	-0.1
1100	200	-0.1
1150	200	-0.1
1200	200	-0.1
1250	200	-0.1
1300	200	-0.1
1350	200	-0.1
1400	200	-0.1
1450	200	-0.1
1500	200	-0.1
1550	200	-0.1
1600	200	-0.1
1650	200	-0.1
1700	200	-0.1
1750	200	-0.1
1800	200	-0.1
1850	200	-0.1
1900	200	-0.1
1950	200	-0.1
2000	200	-0.1
0	250	-0.1
50	250	-0.1
100	250	-0.1
150	250	-0.1
200	250	-0.1
250	250	-0.1
300	250	-0.1
350	250	-0.1
400	250	-0.1
450	250	-0.1
500	250	-0.1
550	250	-0.1
600	250	-0.1
650	250	-0.1
700	250	-0.1
750	250	-0.1
800	250	-0.1
850	250	-0.1
900	250	-0.1
950	250	-0.1
1000	250	-0.1
1050	250	-0.1
1100	250	-0.1
1150	250	-0.1
1200	250	-0.1
1250	250	-0.1
1300	250	-0.1
1350	250	-0.1
1400	250	-0.1
1450	250	-0.1
1500	250	-0.1
1550	250	-0.1
1600	250	-0.1
1650	250	-0.1
1700	250	-0.1
1750	250	-0.1
1800	250	-0.1
1850	250	-0.1
1900	250	-0.1
1950	250	-0.1
2000	250	-0.1
0	300	-0.1
50	300	-0.1
100	300	-0.1
150	300	-0.1
200	300	-0.1
250	300	-0.1
300	300	-0.1
350	300	-0.1
400	300	-0.1
450	300	-0.1
500	300	-0.1
550	300	-0.1
600	300	-0.1
650	300	-0.1
700	300	-0.1
750	300	-0.1
800	300	-0.1
850	300	-0.1
900	300	-0.1
950	300	-0.1
1000	300	-0.1
1050	300	-0.1
1100	300	-0.1
1150	300	-0.1
1200	300	-0.1
1250	300	-0.1
1300	300	-0.1
1350	300	-0.1
1400	300	-0.1
1450	300	-0.1
1500	300	-0.1
1550	300	-0.1
1600	300	-0.1
1650	300	-0.1
1700	300	-0.1
1750	300	-0.1
1800	300	-0.1
1850	300	-0.1
1900	300	-0.1
1950	300	-0.1
2000	300	-0.1
0	350	-0.1
50	350	-0.1
100	350	-0.1
150	350	-0.1
200	350	-0.1
250	350	-0.1
300	350	-0.1
350	350	-0.1
400	350	-0.1
450	350	-0.1
500	350	-0.1
550	350	-0.1
600	350	-0.1
650	350	-0.1
700	350	-0.1
750	350	-0.1
800	350	-0.1
850	350	-0.1
900	350	-0.1
950	350	-0.1
1000	350	-0.1
1050	350	-0.1
1100	350	-0.1
1150	350	-0.1
1200	350	-0.1
1250	350	-0.1
1300	350	-0.1
1350	350	-0.1
1400	350	-0.1
1450	350	-0.1
1500	350	-0.1
1550	350	-0.1
1600	350	-0.1
1650	350	-0.1
1700	350	-0.1
1750	350	-0.1
1800	350	-0.1
1850	350	-0.1
1900	350	-0.1
1950	350	-0.1
2000	350	-0.1
0	400	-0.1
50	400	-0.1
100	400	-0.1
150	400	-0.1
200	400	-0.1
250	400	-0.1
300	400	-0.1
350	400	-0.1
400	400	-0.1
450	400	-0.1
500	400	-0.1
550	400	-0.1
600	400	-0.1
650	400	-0.1
700	400	-0.1
750	400	-0.1
800	400	-0.1
850	400	-0.1
900	400	-0.1
950	400	-0.1
1000	400	-0.1
1050	400	-0.1
1100	400	-0.1
1150	400	-0.1
1200	400	-0.1
1250	400	-0.1
1300	400	-0.1
1350	400	-0.1
1400	400	-0.1
1450	400	-0.1
1500	400	-0.1
1550	400	-0.1
1600	400	-0.1
1650	400	-0.1
1700	400	-0.1
1750	400	-0.1
1800	400	-0.1
1850	400	-0.1
1900	400	-0.1
1950	400	-0.1
2000	400	-0.1
0	450	-0.1
50	450	-0.1
100	450	-0.1
150	450	-0.1
200	450	-0.1
250	450	-0.1
300	450	-0.1
350	450	-0.1
400	450	-0.1
450	450	-0.1
500	450	-0.1
550	450	-0.1
600	450	-0.1
650	450	-0.1
700	450	-0.1
750	450	-0.1
800	450	-0.1
850	450	-0.1
900	450	-0.1
950	450	-0.1
1000	450	-0.1
1050	450	-0.1
1100	450	-0.1
1150	450	-0.1
1200	450	-0.1
1250	450	-0.1
1300	450	-0.1
1350	450	-0.1
1400	450	-0.1
1450	450	-0.1
1500	450	-0.1
1550	450	-0.1
1600	450	-0.1
1650	450	-0.1
1700	450	-0.1
1750	450	-0.1
1800	450	-0.1
1850	450	-0.1
1900	450	-0.1
1950	450	-0.1
2000	450	-0.1
0	500	-0.1
50	500	-0.1
100	500	-0.1
150	500	-0.1
200	500	-0.1
250	500	-0.1
300	500	-0.1
350	500	-0.1
400	500	-0.1
450	500	-0.1
500	500	-0.1
550	500	-0.1
600	500	-0.1
650	500	-0.1
700	500	-0.1
750	500	-0.1
800	500	-0.1
850	500	-0.1
900	500	-0.1
950	500	-0.1
1000	500	-0.1
1050	500	-0.1
1100	500	-0.1
1150	500	-0.1
1200	500	-0.1
1250	500	-0.1
1300	500	-0.1
1350	500	-0.1
1400	500	-0.1
1450	500	-0.1
1500	500	-0.1
1550	500	-0.1
1600	500	-0.1
1650	500	-0.1
1700	500	-0.1
1750	500	-0.1
1800	500	-0.1
1850	500	-0.1
1900	500	-0.1
1950	500	-0.1
2000	500	-0.1
0	550	-0.1
50	550	-0.1
100	550	-0.1
150	550	-0.1
200	550	-0.1
250	550	-0.1
300	550	-0.1
350	550	-0.1
400	550	-0.1
450	550	-0.1
500	550	-0.1
550	550	-0.1
600	550	-0.1
650	550	-0.1
700	550	-0.1
750	550	-0.1
800	550	-0.1
850	550	-0.1
900	550	-0.1
950	550	-0.1
1000	550	-0.1
1050	550	-0.1
1100	550	-0.1
1150	550	-0.1
1200	550	-0.1
1250	550	-0.1
1300	550	-0.1
1350	550	-0.1
1400	550	-0.1
1450	550	-0.1
1500	550	-0.1
1550	550	-0.1
1600	550	-0.1
1650	550	-0.1
1700	550	-0.1
1750	550	-0.1
1800	550	-0.1
1850	550	-0.1
1900	550	-0.1
1950	550	-0.1
2000	550	-0.1
0	600	-0.1
50	600	-0.1
100	600	-0.1
150	600	-0.1
200	600	-0.1
250	600	-0.1
300	600	-0.1
350	600	-0.1
400	600	-0.1
450	600	-0.1
500	600	-0.1
550	600	-0.1
600	600	-0.1
650	600	-0.1
700	600	-0.1
750	600	-0.1
800	600	-0.1
850	600	-0.1
900	600	-0.1
950	600	-0.1
1000	600	-0.1
1050	600	-0.1
1100	600	-0.1
1150	600	-0.1
1200	600	-0.1
1250	600	-0.1
1300	600	-0.1
1350	600	-0.1
1400	600	-0.1
1450	600	-0.1
1500	600	-0.1
1550	600	-0.1
1600	600	-0.1
1650	600	-0.1
1700	600	-0.1
1750	600	-0.1
1800	600	-0.1
1850	600	-0.1
1900	600	-0.1
1950	600	-0.1
2000	600	-0.1
0	650	-0.1
50	650	-0.1
100	650	-0.1
150	650	-0.1
200	650	-0.1
250	650	-0.1
300	650	-0.1
350	650	-0.1
400	650	-0.1
450	650	-0.1
500	650	-0.1
550	650	-0.1
600	650	-0.1
650	650	-0.1
700	650	-0.1
750	650	-0.1
800	650	-0.1
850	650	-0.1
900	650	-0.1
950	650	-0.1
1000	650	-0.1
1050	650	-0.1
1100	650	-0.1
1150	650	-0.1
1200	650	-0.1
1250	650	-0.1
1300	650	-0.1
1350	650	-0.1
1400	650	-0.1
1450	650	-0.1
1500	650	-0.1
1550	650	-0.1
1600	650	-0.1
1650	650	-0.1
1700	650	-0.1
1750	650	-0.1
1800	650	-0.1
1850	650	-0.1
1900	650	-0.1
1950	650	-0.1
2000	650	-0.1
0	700	-0.1
50	700	-0.1
100	700	-0.1
150	700	-0.1
200	700	-0.1
250	700	-0.1
300	700	-0.1
350	700	-0.1
400	700	-0.1
450	700	-0.1
500	700	-0.1
550	700	-0.1
600	700	-0.1
650	700	-0.1
700	700	-0.1
750	700	-0.1
800	700	-0.1
850	700	-0.1
900	700	-0.1
950	700	-0.1
1000	700	-0.1
1050	700	-0.1
1100	700	-0.1
1150	700	-0.1
1200	700	-0.1
1250	700	-0.1
1300	700	-0.1
1350	700	-0.1
1400	700	-0.1
1450	700	-0.1
1500	700	-0.1
1550	700	-0.1
1600	700	-0.1
1650	700	-0.1
1700	700	-0.1
1750	700	-0.1
1800	700	-0.1
1850	700	-0.1
1900	700	-0.1
1950	700	-0.1
2000	700	-0.1
0	750	-0.1
50	750	-0.1
100	750	-0.1
150	750	-0.1
200	750	-0.1
250	750	-0.1
300	750	-0.1
350	750	-0.1
400	750	-0.1
450	750	-0.1
500	750	-0.1
550	750	-0.1
600	750	-0.1
650	750	-0.1
700	750	-0.1
750	750	-0.1
800	750	-0.1
850	750	-0.1
900	750	-0.1
950	750	-0.1
1000	750	-0.1
1050	750	-0.1
1100	750	-0.1
1150	750	-0.1
1200	750	-0.1
1250	750	-0.1
1300	750	-0.1
1350	750	-0.1
1400	750	-0.1
1450	750	-0.1
1500	750	-0.1
1550	750	-0.1
1600	750	-0.1
1650	750	-0.1
1700	750	-0.1
1750	750	-0.1
1800	750	-0.1
1850	750	-0.1
1900	750	-0.1
1950	750	-0.1
2000	750	-0.1
0	800	-0.1
50	800	-0.1
100	800	-0.1
150	800	-0.1
200	800	-0.1
250	800	-0.1
300	800	-0.1
350	800	-0.1
400	800	-0.1
450	800	-0.1
500	800	-0.1
550	800	-0.1
600	800	-0.1
650	800	-0.1
700	800	-0.1
750	800	-0.1
800	800	-0.1
850	800	-0.1
900	800	-0.1
950	800	-0.1
1000	800	-0.1
1050	800	-0.1
1100	800	-0.1
1150	800	-0.1
1200	800	-0.1
1250	800	-0.1
1300	800	-0.1
1350	800	-0.1
1400	800	-0.1
1450	800	-0.1
1500	800	-0.1
1550	800	-0.1
1600	800	-0.1
1650	800	-0.1
1700	800	-0.1
1750	800	-0.1
1800	800	-0.1
1850	800	-0.1
1900	800	-0.1
1950	800	-0.1
2000	800	-0.1
0	850	-0.1
50	850	-0.1
100	850	-0.1
150	850	-0.1
200	850	-0.1
250	850	-0.1
300	850	-0.1
350	850	-0.1
400	850	-0.1
450	850	-0.1
500	850	-0.1
550	850	-0.1
600	850	-0.1
650	850	-0.1
700	850	-0.1
750	850	-0.1
800	850	-0.1
850	850	-0.1
900	850	-0.1
950	850	-0.1
1000	850	-0.1
1050	850	-0.1
1100	850	-0.1
1150	850	-0.1
1200	850	-0.1
1250	850	-0.1
1300	850	-0.1
1350	850	-0.1
1400	850	-0.1
1450	850	-0.1
1500	850	-0.1
1550	850	-0.1
1600	850	-0.1
1650	850	-0.1
1700	850	-0.1
1750	850	-0.1
1800	850	-0.1
1850	850	-0.1
1900	850	-0.1
1950	850	-0.1
2000	850	-0.1
0	900	-0.1
50	900	-0.1
100	900	-0.1
150	900	-0.1
200	900	-0.1
250	900	-0.1
300	900	-0.1
350	900	-0.1
[...]
CELL_DATA	1681
SCALARS T_zz double 1
LOOKUP_TABLE table0
-0.448841
-0.472201
-0.495313
-0.517337
-0.536691
-0.553035
-0.566084
-0.574358
-0.577995
-0.575156
-0.564537
-0.547908
-0.527192
-0.504774
-0.482192
-0.459531
-0.436536
-0.413245
-0.389765
-0.365928
-0.341383
-0.316357
-0.290893
-0.26425
-0.236767
-0.20774
-0.176533
-0.143647
-0.107407
-0.069984
-0.0345132
-0.00144748
0.0278565
0.0528816
0.0731203
0.0875945
0.0959292
0.0992404
0.0993167
0.0972428
0.0923795
-0.479275
-0.506082
-0.532281
-0.556644
-0.576581
-0.592173
-0.603599
-0.60847
-0.607545
-0.59771
-0.576797
-0.548347
-0.515695
-0.482926
-0.452957
-0.426613
-0.404249
-0.386274
-0.372595
-0.362186
-0.353375
-0.345406
-0.337045
-0.325572
-0.3107
-0.290456
-0.263452
-0.230836
-0.189188
-0.142314
-0.0958083
-0.0502584
-0.00852155
0.0280484
0.0583768
0.0807762
0.0945654
0.101407
0.103995
0.103921
0.0998865
-0.511055
-0.540959
-0.569612
-0.595296
-0.614921
-0.628007
-0.634266
-0.630982
-0.618549
-0.59355
-0.554314
-0.506138
-0.454728
-0.406329
-0.365656
-0.335163
-0.316512
-0.310638
-0.316714
-0.33193
-0.352723
-0.376703
-0.40044
-0.418087
-0.426705
-0.423444
-0.407062
-0.378446
-0.333442
-0.275645
-0.211958
-0.145731
-0.0827022
-0.0260953
0.0218998
0.058652
0.0830251
0.0971505
0.104646
0.107771
0.105533
-0.543846
-0.576179
-0.60627
-0.63173
-0.648638
-0.655558
-0.651372
-0.632755
-0.599461
-0.547629
-0.476594
-0.394766
-0.311855
-0.237533
-0.179617
-0.143799
-0.13423
-0.152326
-0.19524
-0.256574
-0.329543
-0.409558
-0.490101
-0.560186
-0.612158
-0.641422
-0.646665
-0.627979
-0.579662
-0.504672
-0.412155
-0.310663
-0.211436
-0.121118
-0.0436197
0.017167
0.0595063
0.0861344
0.10186
0.109853
0.109813
-0.576986
-0.61063
-0.640857
-0.664076
-0.675325
-0.671306
-0.649128
-0.604456
-0.536512
-0.439603
-0.313528
-0.172384
-0.0339959
0.0864223
0.17552
0.219641
0.212276
0.150434
0.0399245
-0.103972
-0.26847
-0.445883
-0.6257
-0.789024
-0.922342
-1.01504
-1.06187
-1.06207
-1.00701
-0.899852
-0.755173
-0.591291
-0.430261
-0.283949
-0.158033
-0.0585148
0.0131545
0.0603269
0.0891028
0.10473
0.109602
-0.609801
-0.643654
-0.672424
-0.690997
-0.692673
-0.671245
-0.620758
-0.534438
-0.409454
-0.236971
-0.0169978
0.228857
0.469955
0.678193
0.826257
0.885471
0.844129
0.700392
0.468907
0.179411
-0.145051
-0.490606
-0.840669
-1.16637
-1.44483
-1.65396
-1.77836
-1.81145
-1.74006
-1.57045
-1.32953
-1.05431
-0.785473
-0.544573
-0.340253
-0.179914
-0.0633363
0.0149511
0.0637051
0.0913322
0.103735
-0.641122
-0.674009
-0.69951
-0.710917
-0.698568
-0.651954
-0.560182
-0.411261
-0.196598
0.0977583
0.472264
0.896893
1.32205
1.69208
1.949
2.03759
1.93403
1.64591
1.20965
0.675084
0.0812001
-0.544504
-1.17473
-1.77021
-2.29357
-2.70443
-2.96745
-3.05773
-2.95388
-2.67027
-2.25813
-1.78924
-1.33577
-0.937759
-0.609682
-0.357176
-0.175393
-0.0530182
0.0244222
0.0696577
0.0917803
-0.669418
-0.699633
-0.719998
-0.721886
-0.691451
-0.61158
-0.463318
-0.225578
0.121076
0.601441
1.22042
1.93847
2.67574
3.32529
3.77312
3.91688
3.71129
3.18782
2.42589
1.50119
0.473468
-0.599622
-1.67028
-2.69172
-3.61026
-4.35546
-4.8557
-5.04708
-4.89012
-4.41492
-3.71426
-2.92077
-2.16071
-1.50834
-0.989889
-0.602896
-0.329895
-0.147779
-0.0321812
0.0365631
0.0721783
-0.695545
-0.722502
-0.735983
-0.726022
-0.672937
-0.550724
-0.328756
0.0291529
0.574318
1.34025
2.3328
3.5194
4.76758
5.87696
6.64387
6.88547
6.52195
5.6311
4.33809
2.7816
1.08714
-0.661544
-2.39465
-4.06725
-5.62724
-6.92706
-7.80984
-8.16152
-7.91257
-7.12599
-5.94743
-4.61947
-3.36399
-2.30816
-1.50671
-0.930744
-0.530864
-0.267127
-0.103738
-0.00587585
0.0461589
-0.719732
-0.742591
-0.747794
-0.723511
-0.643091
-0.469411
-0.156041
0.355586
1.16059
2.3175
3.85178
5.7634
7.8679
9.74908
10.9985
11.3774
10.8037
9.37117
7.22715
4.66874
1.98377
-0.723275
-3.39424
-6.03642
-8.62253
-10.8154
-12.256
-12.7918
-12.3543
-11.0604
-9.12981
-6.97918
-4.98877
-3.35395
-2.15949
-1.33245
-0.772293
-0.409556
-0.189395
-0.0575471
0.0138042
-0.742211
-0.760044
-0.756347
-0.715982
-0.605054
-0.373733
0.0437451
0.7347
1.83781
3.46929
5.71277
8.63555
12.056
15.1399
17.0815
17.6562
16.8188
14.6292
11.2082
7.1851
3.1641
-0.777253
-4.65676
-8.6153
-12.6868
-16.187
-18.4083
-19.158
-18.4008
-16.3516
-13.3235
-10.0032
-7.00309
-4.60078
-2.91176
-1.78021
-1.03785
-0.568424
-0.285982
-0.117414
-0.0244829
-0.763963
-0.777462
-0.765461
-0.709482
-0.568574
-0.280293
0.241157
1.11355
2.52589
4.67651
7.72978
11.7945
16.667
21.1139
23.9344
24.8088
23.6132
20.4496
15.5614
9.9411
4.46427
-0.847102
-6.09853
-11.5253
-17.1901
-22.1249
-25.2936
-26.3585
-25.2481
-22.3071
-17.9807
-13.2958
-9.1573
-5.91302
-3.68951
-2.23476
-1.30396
-0.727733
-0.384617
-0.180501
-0.0662507
-0.783813
-0.793725
-0.775398
-0.707075
-0.541111
-0.204907
0.403701
1.42733
3.10538
5.74098
9.59302
14.7149
20.8127
26.4666
30.2349
31.5018
29.8572
25.5799
19.3591
12.4342
5.67843
-0.92373
-7.5226
-14.295
-21.257
-27.429
-31.5875
-33.0953
-31.7071
-27.901
-22.2898
-16.2669
-11.0794
-7.08688
-4.38128
-2.6376
-1.54
-0.871018
-0.476791
-0.242508
-0.109214
-0.801767
-0.809885
-0.788344
-0.713054
-0.531481
-0.164184
0.501568
1.62425
3.48143
6.46587
10.9134
16.7927
23.7155
30.2078
34.7169
36.3316
34.341
29.1998
22.0273
14.2145
6.55112
-0.986652
-8.55149
-16.2673
-24.1326
-31.1901
-36.0791
-37.9405
-36.3859
-31.9668
-25.4067
-18.3906
-12.4419
-7.91741
-4.87445
-2.9309
-1.71802
-0.984573
-0.554581
-0.298567
-0.150766
-0.818134
-0.827151
-0.806168
-0.730403
-0.54556
-0.169231
0.515103
1.67204
3.59392
6.71175
11.3846
17.5384
24.7352
31.4962
36.2578
38.006
35.9243
30.5307
23.0537
14.8981
6.85659
-1.02928
-8.87975
-16.9152
-25.199
-32.6073
-37.6775
-39.6134
-38.0234
-33.4286
-26.5622
-19.2054
-12.9721
-8.24812
-5.08501
-3.07134
-1.81696
-1.05826
-0.612294
-0.345342
-0.189294
-0.832278
-0.844475
-0.827964
-0.758572
-0.583083
-0.22148
0.438181
1.55533
3.41375
6.42269
10.9076
16.7981
23.6822
30.1358
34.661
36.314
34.3446
29.2497
22.1259
14.2752
6.51819
-1.04332
-8.50261
-16.1931
-24.2644
-31.4261
-36.2014
-37.9994
-36.4879
-32.1184
-25.563
-18.5241
-12.5469
-8.01476
-4.97831
-3.03877
-1.82432
-1.08484
-0.646949
-0.382121
-0.22474
-0.844737
-0.86277
-0.854313
-0.797714
-0.642795
-0.317701
0.276842
1.28575
2.94917
5.60375
9.50556
14.6093
20.5847
26.182
30.071
31.4645
29.7675
25.4022
19.2455
12.3772
5.57968
-1.02071
-7.51215
-14.2435
-21.335
-27.5878
-31.7199
-33.241
-31.9128
-28.121
-22.4786
-16.4196
-11.2161
-7.25114
-4.57205
-2.83653
-1.73799
-1.06246
-0.657846
-0.409129
-0.25731
-0.854959
-0.880341
-0.882684
-0.843869
-0.718798
-0.447138
0.0526786
0.902127
2.28081
4.42952
7.51746
11.5235
16.2224
20.6222
23.6454
24.7118
23.4063
20.0325
15.2155
9.76442
4.34895
-0.915105
-6.10664
-11.4952
-17.1082
-22.0225
-25.3026
-26.5058
-25.4623
-22.4924
-18.1259
-13.4294
-9.30621
-6.12657
-3.94659
-2.50296
-1.57477
-0.996978
-0.646178
-0.425641
-0.286206
-0.862603
-0.895528
-0.910071
-0.891481
-0.801553
-0.592197
-0.201092
0.463082
1.52671
3.14299
5.40294
8.27862
11.6109
14.71
16.8172
17.565
16.6989
14.3871
11.0242
7.14484
3.21582
-0.655272
-4.49567
-8.42716
-12.4074
-15.8618
-18.199
-19.0962
-18.4249
-16.3892
-13.3713
-10.0872
-7.15987
-4.8534
-3.21251
-2.09823
-1.36647
-0.903288
-0.617789
-0.433028
-0.311445
-0.86864
-0.909249
-0.935863
-0.936917
-0.88118
-0.733005
-0.448989
0.0331413
0.792879
1.92108
3.45986
5.36055
7.50471
9.47576
10.8047
11.3006
10.8311
9.45859
7.41425
4.98684
2.42315
-0.173519
-2.77609
-5.38294
-7.89615
-10.0561
-11.5738
-12.2284
-11.918
-10.7377
-8.93367
-6.92073
-5.08489
-3.58968
-2.46642
-1.67982
-1.14696
-0.800645
-0.582762
-0.436377
-0.335109
-0.872589
-0.919993
-0.957511
-0.975659
-0.950768
-0.857629
-0.668283
-0.344653
0.163132
0.904255
1.89319
3.08668
4.39514
5.60259
6.46028
6.8488
6.69879
6.0282
4.96059
3.64604
2.2025
0.678195
-0.91651
-2.5226
-4.03571
-5.34636
-6.32642
-6.82765
-6.77387
-6.21775
-5.30505
-4.2525
-3.25349
-2.40861
-1.74779
-1.26475
-0.925638
-0.696469
-0.543617
-0.435232
-0.356769
-0.874345
-0.927771
-0.974754
-1.00728
-1.00816
-0.960683
-0.848652
-0.650727
-0.332598
0.132938
0.749516
1.48979
2.28572
3.05155
3.68644
4.09417
4.23462
4.11822
3.80196
3.33833
2.75236
2.05694
1.24834
0.375966
-0.496433
-1.30619
-1.97278
-2.4135
-2.58686
-2.51999
-2.28093
-1.96137
-1.63284
-1.33312
-1.07698
-0.869741
-0.712061
-0.594886
-0.505133
-0.434234
-0.378626
-0.873369
-0.932214
-0.987206
-1.0318
-1.05277
-1.04048
-0.987493
-0.881582
-0.697598
-0.415319
-0.0303607
0.444328
0.976338
1.54328
2.11478
2.64297
3.11545
3.54294
3.92749
4.20455
4.28027
4.20179
4.03015
3.74008
3.33398
2.84032
2.3051
1.78784
1.31332
0.878947
0.482923
0.136858
-0.137851
-0.330708
-0.445104
-0.497138
-0.508745
-0.496427
-0.470142
-0.436933
-0.40227
-0.868161
-0.931028
-0.992314
-1.04643
-1.08281
-1.0965
-1.08539
-1.04177
-0.944118
-0.773946
-0.523105
-0.190376
0.221187
0.734943
1.37359
2.13515
3.0386
4.10555
5.28768
6.37612
7.13314
7.63036
7.99089
8.13347
8.02525
7.68771
7.15677
6.45841
5.57744
4.53624
3.40325
2.31075
1.38686
0.679909
0.187446
-0.124945
-0.305792
-0.398673
-0.436007
-0.440115
-0.425779
-0.856684
-0.920585
-0.98626
-1.04709
-1.09648
-1.13009
-1.14637
-1.14171
-1.09675
-0.991367
-0.811605
-0.54428
-0.160981
0.397532
1.19852
2.29079
3.7315
5.57951
7.75868
9.86868
11.5284
12.7351
13.5812
14.0208
14.0543
13.7462
13.1421
12.2025
10.7802
8.93751
6.85843
4.82027
3.07592
1.73784
0.825909
0.239943
-0.11157
-0.307703
-0.406256
-0.445529
-0.449562
-0.840477
-0.904091
-0.972524
-1.0378
-1.09657
-1.14384
-1.17711
-1.19531
-1.18003
-1.10883
-0.962041
-0.715628
-0.311916
0.342007
1.35975
2.85274
4.93769
7.73131
11.1348
14.4661
17.117
19.0708
20.4521
21.1935
21.276
20.8925
20.1771
18.9531
16.852
14.011
10.7805
7.60878
4.89458
2.82559
1.45108
0.582478
0.063875
-0.229107
-0.38313
-0.453388
-0.473171
-0.821494
-0.885268
-0.955275
-1.02357
-1.08716
-1.14187
-1.1856
-1.21672
-1.21606
-1.16031
-1.02607
-0.778842
-0.340389
0.416012
1.65501
3.56278
6.35412
10.2043
14.994
19.635
23.1915
25.8106
27.7551
28.8571
28.9551
28.4235
27.6045
26.092
23.2649
19.3529
14.8108
10.3705
6.65406
3.84169
2.00504
0.872575
0.205518
-0.169899
-0.369284
-0.464104
-0.496337
-0.798927
-0.861999
-0.932544
-1.00265
-1.06948
-1.12908
-1.17908
-1.217
-1.22319
-1.1742
-1.04444
-0.791925
-0.323969
0.509921
1.91382
4.13985
7.49312
12.1909
18.0951
23.7566
27.9575
31.0405
33.4244
34.837
34.9596
34.3062
33.3938
31.6441
28.2473
23.501
17.9197
12.4747
7.97299
4.57911
2.39062
1.06419
0.29148
-0.14046
-0.369718
-0.480163
-0.520073
-0.774916
-0.837688
-0.907701
-0.978269
-1.04566
-1.10697
-1.16037
-1.20156
-1.21355
-1.17136
-1.0467
-0.796968
-0.319993
0.540338
2.00056
4.34503
7.91442
12.9275
19.2238
25.2412
29.6499
32.8744
35.4223
36.9621
37.1127
36.4189
35.4338
33.5644
29.9775
24.9651
19.0336
13.2315
8.44856
4.84699
2.52382
1.12178
0.307153
-0.146686
-0.386104
-0.501383
-0.544273
-0.749682
-0.811619
-0.880147
-0.949841
-1.0162
-1.07751
-1.1327
-1.17605
-1.19385
-1.16052
-1.04711
-0.814931
-0.36155
0.458105
1.84449
4.06786
7.44539
12.15
18.0199
23.6634
27.8937
31.0179
33.407
34.8244
34.9931
34.3648
33.4038
31.6043
28.2428
23.5587
17.9647
12.4789
7.9764
4.57967
2.37156
1.02997
0.24593
-0.191505
-0.420771
-0.529982
-0.570077
-0.723608
-0.783422
-0.849851
-0.917625
-0.982674
-1.04378
-1.10017
-1.14631
-1.16955
-1.1467
-1.05197
-0.85158
-0.45416
0.263109
1.46328
3.35699
6.18428
10.0257
14.7115
19.317
22.996
25.7817
27.7854
28.8917
29.0314
28.543
27.738
26.2076
23.3721
19.4622
14.8862
10.4097
6.6848
3.84986
1.97319
0.808059
0.117452
-0.270039
-0.472036
-0.565964
-0.597379
-0.698849
-0.756817
-0.820884
-0.885983
-0.948723
-1.00871
-1.06589
-1.11555
-1.14636
-1.13733
-1.06593
-0.905118
-0.579472
0.00290134
0.956355
2.4198
4.54762
7.33265
10.6117
13.9371
16.8224
19.079
20.6003
21.3672
21.4793
21.1546
20.5518
19.3768
17.2132
14.2819
10.9701
7.74603
5.00059
2.878
1.43375
0.507931
-0.0520948
-0.368555
-0.531524
-0.603703
-0.623072
-0.674649
-0.730746
-0.792294
-0.854158
-0.915203
-0.97463
-1.03197
-1.08502
-1.12346
-1.12871
-1.0816
-0.961302
-0.717181
-0.281908
0.421033
1.46781
2.94351
4.82155
6.9804
9.19855
11.1901
12.786
13.8793
14.4431
14.5609
14.3519
13.8931
13.0248
11.5416
9.57401
7.36527
5.21615
3.3566
1.89197
0.862311
0.181668
-0.235852
-0.471019
-0.58934
-0.636462
-0.643503
-0.649515
-0.703545
-0.762283
-0.82054
-0.87942
-0.937664
-0.994385
-1.05001
-1.09528
-1.114
-1.09009
-1.00824
-0.840673
-0.53983
-0.0563624
0.64328
1.60291
2.80433
4.16496
5.54808
6.7449
7.71597
8.47324
8.91862
9.04032
8.90247
8.55034
7.9299
7.00149
5.80607
4.45646
3.13698
1.96668
1.0248
0.33933
-0.125395
-0.410787
-0.567541
-0.641631
-0.663597
-0.658284
-0.622295
-0.673984
-0.729611
-0.784263
-0.839677
-0.895233
-0.950754
-1.00777
-1.0587
-1.08942
-1.08652
-1.03985
-0.933312
-0.738965
-0.430159
0.00675025
0.601225
1.33441
2.1526
2.98005
3.68411
4.26195
4.7374
5.03753
5.13852
5.06237
4.82735
4.42492
3.87242
3.17946
2.39183
1.61855
0.916442
0.33873
-0.0878782
-0.381071
-0.558596
-0.650105
-0.685642
-0.685304
-0.66769
-0.592985
-0.641927
-0.694447
-0.745988
-0.798696
-0.852064
-0.906092
-0.96316
-1.0174
-1.05706
-1.07137
-1.05421
-0.997386
-0.885294
-0.704028
-0.449427
-0.0986749
0.328427
0.795763
1.27673
1.69826
2.04718
2.32075
2.49076
2.5556
2.5186
2.38529
2.1504
1.84216
1.45903
1.01625
0.58292
0.181037
-0.154463
-0.400538
-0.568875
-0.666003
-0.708493
-0.714804
-0.697198
-0.669809
-0.563956
-0.61093
-0.660601
-0.709706
-0.759541
-0.810297
-0.862667
-0.918475
-0.973165
-1.01777
-1.04427
-1.04884
-1.02801
-0.973494
-0.877818
-0.739862
-0.549129
-0.316457
-0.0600057
0.208773
0.45471
0.661358
0.817448
0.914889
0.958282
0.946253
0.878255
0.750895
0.581474
0.372681
0.13499
-0.0950307
-0.309435
-0.487887
-0.615402
-0.699706
-0.740802
-0.748995
-0.736188
-0.707029
-0.668782
-0.53581
-0.580776
-0.627716
-0.674687
-0.722013
-0.77034
-0.820785
-0.87437
-0.927643
-0.974192
-1.00832
-1.02742
-1.03063
-1.01375
-0.97224
-0.905058
-0.811874
-0.694534
-0.559228
-0.41777
-0.283526
-0.168219
-0.0788666
-0.0184204
0.0121173
0.0124148
-0.0188279
-0.0820377
-0.172033
-0.28115
-0.398239
-0.509373
-0.610985
-0.692138
-0.745218
-0.775982
-0.781001
-0.767455
-0.743267
-0.707286
-0.66105
-0.508604
-0.550481
-0.594509
-0.639199
-0.684889
-0.731589
-0.779756
-0.830551
-0.881712
-0.928647
-0.967249
-0.995962
-1.01529
-1.02296
-1.01553
-0.991389
-0.949569
-0.892491
-0.826138
-0.758447
-0.694957
-0.639058
-0.592587
-0.557299
-0.536052
-0.530903
-0.542273
-0.568485
-0.604764
-0.64847
-0.695583
-0.737892
-0.775667
-0.800892
-0.808386
-0.805558
-0.788707
-0.762369
-0.731059
-0.691293
-0.643488
-0.483717
-0.522206
-0.563063
-0.605281
-0.649151
-0.69402
-0.739656
-0.78726
-0.835536
-0.88145
-0.922302
-0.957391
-0.987821
-1.0119
-1.02642
-1.02945
-1.01954
-0.998697
-0.971987
-0.945122
-0.92004
-0.896405
-0.873697
-0.85316
-0.838236
-0.831277
-0.832063
-0.838102
-0.845123
-0.852988
-0.861193
-0.864645
-0.865881
-0.858563
-0.838804
-0.81486
-0.783126
-0.747385
-0.710947
-0.669169
-0.621495
-0.460945
-0.495378
-0.532971
-0.572673
-0.614056
-0.656396
-0.699355
-0.743415
-0.787906
-0.83136
-0.87256
-0.91133
-0.948271
-0.982202
-1.01049
-1.03064
-1.04079
-1.042
-1.03777
-1.03178
-1.02496
-1.01624
-1.00484
-0.992065
-0.980956
-0.973416
-0.968962
-0.965257
-0.959255
-0.950676
-0.939339
-0.922573
-0.901644
-0.874036
-0.839129
-0.802498
-0.763149
-0.722839
-0.682688
-0.640143
-0.59516
SCALARS T_xz double 1
LOOKUP_TABLE table1
0.40545
0.436761
0.467106
0.494465
0.518864
0.528679
0.528403
0.511159
0.46971
0.41009
0.318188
0.194607
0.0404665
-0.140601
-0.339222
-0.545247
-0.747579
-0.934563
-1.09525
-1.21985
-1.30057
-1.33472
-1.31831
-1.25323
-1.14709
-0.998119
-0.824733
-0.634609
-0.434742
-0.253607
-0.0848112
0.0598774
0.176578
0.264776
0.324709
0.359375
0.373539
0.372726
0.360665
0.340025
0.31068
0.47654
0.519342
0.562957
0.604868
0.647012
0.66847
0.680677
0.672429
0.631425
0.571341
0.465263
0.314596
0.120041
-0.114819
-0.376924
-0.652563
-0.926034
-1.18023
-1.39923
-1.56887
-1.67781
-1.72348
-1.69895
-1.60738
-1.46163
-1.25437
-1.01703
-0.758443
-0.485342
-0.247535
-0.0267536
0.157645
0.30095
0.404119
0.468483
0.499409
0.504353
0.491679
0.466491
0.432281
0.387027
0.558412
0.616234
0.677307
0.738833
0.80212
0.845036
0.877354
0.885587
0.854618
0.794526
0.6739
0.490513
0.243714
-0.061788
-0.409633
-0.780794
-1.15253
-1.49975
-1.79893
-2.03011
-2.17839
-2.23891
-2.20319
-2.07479
-1.86988
-1.58616
-1.26054
-0.907631
-0.540937
-0.217985
0.0729195
0.308478
0.483611
0.60146
0.666436
0.687462
0.675942
0.64377
0.598361
0.544453
0.480825
0.652033
0.728822
0.812349
0.899832
0.99217
1.0661
1.12922
1.16502
1.15438
1.10188
0.969072
0.747709
0.434538
0.0354175
-0.429254
-0.932708
-1.44123
-1.91763
-2.32702
-2.64184
-2.84328
-2.92403
-2.87326
-2.69453
-2.40811
-2.01837
-1.56983
-1.0853
-0.588334
-0.147984
0.236988
0.537392
0.748547
0.8782
0.936233
0.937206
0.898207
0.835846
0.760658
0.67907
0.590838
0.758691
0.857783
0.969499
1.09054
1.22094
1.33933
1.44808
1.52768
1.5508
1.52293
1.38571
1.12346
0.723011
0.203906
-0.421729
-1.11049
-1.80395
-2.46741
-3.02833
-3.45629
-3.72765
-3.83659
-3.76603
-3.51992
-3.12927
-2.58552
-1.96394
-1.29328
-0.612047
-0.010329
0.500045
0.880769
1.12672
1.26269
1.29994
1.26469
1.18441
1.07498
0.957661
0.838662
0.723806
0.876809
1.00281
1.14898
1.31227
1.49268
1.67139
1.84565
1.99246
2.07457
2.09499
1.97006
1.66978
1.16455
0.484355
-0.364906
-1.31548
-2.27264
-3.19325
-3.96107
-4.54107
-4.90503
-5.04989
-4.95334
-4.61907
-4.0865
-3.33317
-2.46781
-1.53231
-0.590783
0.23475
0.911405
1.38927
1.66626
1.79111
1.7837
1.68731
1.54297
1.3673
1.19257
1.02449
0.874433
1.00395
1.16236
1.34928
1.56406
1.80896
2.06608
2.33123
2.57713
2.75786
2.86074
2.77846
2.45306
1.83083
0.931971
-0.226931
-1.54618
-2.88294
-4.14721
-5.19377
-5.9756
-6.46075
-6.64778
-6.51732
-6.07132
-5.34494
-4.3176
-3.11297
-1.80325
-0.496432
0.63948
1.53569
2.12815
2.42641
2.50582
2.41531
2.22125
1.97976
1.71599
1.46585
1.23551
1.03557
1.13865
1.33335
1.56674
1.84199
2.16552
2.52231
2.90855
3.29417
3.62383
3.86341
3.87373
3.55236
2.7999
1.61556
0.03345
-1.79738
-3.65798
-5.38605
-6.80133
-7.84463
-8.4805
-8.71412
-8.54076
-7.96143
-6.99248
-5.60322
-3.93549
-2.10578
-0.292647
1.26703
2.45133
3.17479
3.46918
3.45114
3.21945
2.87742
2.49976
2.11911
1.77352
1.46742
1.20868
1.2733
1.51074
1.79533
2.13894
2.55559
3.03204
3.57179
4.14502
4.73295
5.13676
5.31582
5.05595
4.14209
2.61343
0.47954
-2.06013
-4.6196
-6.97014
-8.95328
-10.2297
-11.0059
-11.3085
-11.089
-10.3721
-9.1794
-7.25449
-4.96243
-2.42509
0.0786104
2.19009
3.78528
4.60671
4.87033
4.6604
4.20787
3.65499
3.1131
2.56725
2.10592
1.71176
1.38515
1.40624
1.68782
2.02649
2.44394
2.96375
3.57733
4.29954
5.10605
6.01948
6.67704
7.13167
7.03887
5.99188
3.99755
1.11949
-2.31892
-5.76978
-8.94356
-11.639
-13.1736
-14.0625
-14.417
-14.1657
-13.3499
-11.9188
-9.3101
-6.17782
-2.71918
0.663776
3.47483
5.56104
6.46522
6.62468
6.12584
5.36146
4.52979
3.77843
3.03947
2.44642
1.95572
1.55707
1.5349
1.85632
2.24891
2.74143
3.36685
4.12733
5.0493
6.12007
7.36733
8.40937
9.24972
9.45398
8.37082
5.76531
1.99601
-2.55133
-7.09926
-11.2659
-14.7575
-16.5602
-17.5162
-17.8846
-17.6281
-16.7812
-15.0197
-11.7151
-7.63906
-2.96947
1.43387
5.10922
7.7077
8.69373
8.70297
7.76818
6.60972
5.44423
4.43343
3.50194
2.77064
2.18191
1.71388
1.64922
2.0069
2.4492
3.01184
3.73723
4.63914
5.75766
7.09604
8.69861
10.1748
11.4545
11.9879
10.9001
7.7177
3.04269
-2.73342
-8.51637
-13.7064
-17.9379
-19.963
-20.9776
-21.3761
-21.1305
-20.2416
-18.1576
-14.2045
-9.18874
-3.229
2.29143
6.89556
10.0231
11.0394
10.8272
9.40429
7.82025
6.30543
5.03085
3.9102
3.04785
2.36932
1.83949
1.74492
2.13049
2.61367
3.23454
4.04621
5.06489
6.35101
7.92186
9.86746
11.7488
13.4122
14.2193
13.2048
9.54005
3.9575
-2.83742
-9.71531
-15.9029
-20.6419
-22.8296
-23.9478
-24.42
-24.186
-23.1841
-21.0218
-16.41
-10.4823
-3.53375
3.08965
8.52202
12.1593
13.1274
12.5963
10.7874
8.82069
6.99747
5.49939
4.21462
3.24536
2.49618
1.92057
1.81501
2.21934
2.73068
3.39168
4.26366
5.36198
6.76364
8.49659
10.6952