# vtk DataFile Version 3.0
Gravity inversion using rectangular prisms
ASCII
DATASET UNSTRUCTURED_GRID

POINTS	1501	double
100	100	100
100	100	300
100	100	500
100	100	700
100	100	900
100	300	100
100	300	300
100	300	500
100	300	700
100	300	900
100	500	100
100	500	300
100	500	500
100	500	700
100	500	900
100	700	100
100	700	300
100	700	500
100	700	700
100	700	900
100	900	100
100	900	300
100	900	500
100	900	700
100	900	900
100	1100	100
100	1100	300
100	1100	500
100	1100	700
100	1100	900
100	1300	100
100	1300	300
100	1300	500
100	1300	700
100	1300	900
100	1500	100
100	1500	300
100	1500	500
100	1500	700
100	1500	900
100	1700	100
100	1700	300
100	1700	500
100	1700	700
100	1700	900
100	1900	100
100	1900	300
100	1900	500
100	1900	700
100	1900	900
300	100	100
300	100	300
300	100	500
300	100	700
300	100	900
300	300	100
300	300	300
300	300	500
300	300	700
300	300	900
300	500	100
300	500	300
300	500	500
300	500	700
300	500	900
300	700	100
300	700	300
300	700	500
300	700	700
300	700	900
300	900	100
300	900	300
300	900	500
300	900	700
300	900	900
300	1100	100
300	1100	300
300	1100	500
300	1100	700
300	1100	900
300	1300	100
300	1300	300
300	1300	500
300	1300	700
300	1300	900
300	1500	100
300	1500	300
300	1500	500
300	1500	700
300	1500	900
300	1700	100
300	1700	300
300	1700	500
300	1700	700
300	1700	900
300	1900	100
300	1900	300
300	1900	500
300	1900	700
300	1900	900
500	100	100
500	100	300
500	100	500
500	100	700
500	100	900
500	300	100
500	300	300
500	300	500
500	300	700
500	300	900
500	500	100
450	450	250
450	450	350
450	550	250
450	550	350
550	450	250
550	450	350
550	550	250
550	550	350
500	500	500
500	500	700
500	500	900
500	700	100
450	650	250
450	650	350
450	750	250
450	750	350
550	650	250
550	650	350
550	750	250
550	750	350
450	650	450
450	650	550
450	750	450
450	750	550
550	650	450
550	650	550
550	750	450
550	750	550
500	700	700
500	700	900
500	900	100
450	850	250
450	850	350
450	950	250
450	950	350
550	850	250
550	850	350
550	950	250
550	950	350
500	900	500
500	900	700
500	900	900
500	1100	100
500	1100	300
500	1100	500
500	1100	700
500	1100	900
500	1300	100
500	1300	300
500	1300	500
500	1300	700
500	1300	900
500	1500	100
500	1500	300
500	1500	500
500	1500	700
500	1500	900
500	1700	100
500	1700	300
500	1700	500
500	1700	700
500	1700	900
500	1900	100
500	1900	300
500	1900	500
500	1900	700
500	1900	900
700	100	100
700	100	300
700	100	500
700	100	700
700	100	900
700	300	100
700	300	300
700	300	500
700	300	700
700	300	900
650	450	50
650	450	150
650	550	50
650	550	150
750	450	50
750	450	150
750	550	50
750	550	150
650	450	250
650	450	350
625	525	225
625	525	275
625	575	225
625	575	275
675	525	225
675	525	275
675	575	225
675	575	275
650	550	350
750	450	250
750	450	350
725	525	225
725	525	275
725	575	225
725	575	275
775	525	225
775	525	275
775	575	225
775	575	275
750	550	350
650	450	450
650	450	550
650	550	450
650	550	550
750	450	450
750	450	550
750	550	450
750	550	550
700	500	700
700	500	900
650	650	50
650	650	150
650	750	50
650	750	150
750	650	50
750	650	150
750	750	50
750	750	150
650	650	250
650	650	350
650	750	250
650	750	350
750	650	250
750	650	350
750	750	250
750	750	350
650	650	450
650	650	550
650	750	450
650	750	550
750	650	450
750	650	550
750	750	450
750	750	550
650	650	650
650	650	750
650	750	650
650	750	750
750	650	650
750	650	750
750	750	650
750	750	750
700	700	900
650	850	50
650	850	150
650	950	50
650	950	150
750	850	50
750	850	150
750	950	50
750	950	150
625	825	225
625	825	275
625	875	225
625	875	275
675	825	225
675	825	275
675	875	225
675	875	275
650	850	350
650	950	250
650	950	350
725	825	225
725	825	275
725	875	225
725	875	275
775	825	225
775	825	275
775	875	225
775	875	275
750	850	350
750	950	250
750	950	350
650	850	450
650	850	550
650	950	450
650	950	550
750	850	450
750	850	550
750	950	450
750	950	550
700	900	700
700	900	900
700	1100	100
700	1100	300
700	1100	500
700	1100	700
700	1100	900
700	1300	100
700	1300	300
700	1300	500
700	1300	700
700	1300	900
700	1500	100
700	1500	300
700	1500	500
700	1500	700
700	1500	900
700	1700	100
700	1700	300
700	1700	500
700	1700	700
700	1700	900
700	1900	100
700	1900	300
700	1900	500
700	1900	700
700	1900	900
900	100	100
900	100	300
900	100	500
900	100	700
900	100	900
900	300	100
900	300	300
900	300	500
900	300	700
900	300	900
900	500	100
850	450	250
850	450	350
850	550	250
850	550	350
950	450	250
950	450	350
950	550	250
950	550	350
850	450	450
850	450	550
850	550	450
850	550	550
950	450	450
950	450	550
950	550	450
950	550	550
900	500	700
900	500	900
850	650	50
850	650	150
850	750	50
850	750	150
950	650	50
950	650	150
950	750	50
950	750	150
850	650	250
850	650	350
850	750	250
850	750	350
950	650	250
950	650	350
950	750	250
950	750	350
850	650	450
850	650	550
850	750	450
850	750	550
950	650	450
950	650	550
950	750	450
950	750	550
850	650	650
850	650	750
850	750	650
850	750	750
950	650	650
950	650	750
950	750	650
950	750	750
900	700	900
900	900	100
850	850	250
850	850	350
850	950	250
850	950	350
950	850	250
950	850	350
950	950	250
950	950	350
850	850	450
850	850	550
850	950	450
850	950	550
950	850	450
950	850	550
950	950	450
950	950	550
900	900	700
900	900	900
900	1100	100
900	1100	300
900	1100	500
900	1100	700
900	1100	900
850	1250	50
850	1250	150
850	1350	50
850	1350	150
950	1250	50
950	1250	150
950	1350	50
950	1350	150
850	1250	250
850	1250	350
850	1350	250
850	1350	350
950	1250	250
950	1250	350
925	1325	225
925	1325	275
925	1375	225
925	1375	275
975	1325	225
975	1325	275
975	1375	225
975	1375	275
925	1325	325
925	1325	375
925	1375	325
925	1375	375
975	1325	325
975	1325	375
975	1375	325
975	1375	375
850	1250	450
850	1250	550
850	1350	450
850	1350	550
950	1250	450
950	1250	550
950	1350	450
950	1350	550
900	1300	700
900	1300	900
850	1450	50
850	1450	150
850	1550	50
850	1550	150
950	1450	50
950	1450	150
950	1550	50
950	1550	150
850	1450	250
850	1450	350
850	1550	250
850	1550	350
925	1425	225
925	1425	275
925	1475	225
925	1475	275
975	1425	225
975	1425	275
975	1475	225
975	1475	275
925	1425	325
925	1425	375
925	1475	325
925	1475	375
975	1425	325
975	1425	375
975	1475	325
975	1475	375
950	1550	250
950	1550	350
850	1450	450
850	1450	550
850	1550	450
850	1550	550
950	1450	450
950	1450	550
950	1550	450
950	1550	550
900	1500	700
900	1500	900
900	1700	100
900	1700	300
900	1700	500
900	1700	700
900	1700	900
900	1900	100
900	1900	300
900	1900	500
900	1900	700
900	1900	900
1100	100	100
1100	100	300
1100	100	500
1100	100	700
1100	100	900
1100	300	100
1100	300	300
1100	300	500
1100	300	700
1100	300	900
1100	500	100
1050	450	250
1050	450	350
1050	550	250
1050	550	350
1150	450	250
1150	450	350
1150	550	250
1150	550	350
1050	450	450
1050	450	550
1050	550	450
1050	550	550
1150	450	450
1150	450	550
1150	550	450
1150	550	550
1100	500	700
1100	500	900
1100	700	100
1050	650	250
1050	650	350
1050	750	250
1050	750	350
1150	650	250
1150	650	350
1150	750	250
1150	750	350
1050	650	450
1050	650	550
1050	750	450
1050	750	550
1150	650	450
1150	650	550
1150	750	450
1150	750	550
1050	650	650
1050	650	750
1050	750	650
1050	750	750
1150	650	650
1150	650	750
1150	750	650
1150	750	750
1050	650	850
1050	650	950
1050	750	850
1050	750	950
1150	650	850
1150	650	950
1150	750	850
1150	750	950
1100	900	100
1100	900	300
1050	850	450
1050	850	550
1050	950	450
1050	950	550
1150	850	450
1150	850	550
1150	950	450
1150	950	550
1050	850	650
1050	850	750
1050	950	650
1050	950	750
1150	850	650
1150	850	750
1150	950	650
1150	950	750
1050	850	850
1050	850	950
1050	950	850
1050	950	950
1150	850	850
1150	850	950
1150	950	850
1150	950	950
1100	1100	100
1050	1050	250
1050	1050	350
1050	1150	250
1050	1150	350
1150	1050	250
1150	1050	350
1150	1150	250
1150	1150	350
1050	1050	450
1050	1050	550
1050	1150	450
1050	1150	550
1150	1050	450
1150	1050	550
1150	1150	450
1150	1150	550
1050	1050	650
1050	1050	750
1050	1150	650
1050	1150	750
1150	1050	650
1150	1050	750
1150	1150	650
1150	1150	750
1100	1100	900
1050	1250	50
1050	1250	150
1050	1350	50
1050	1350	150
1150	1250	50
1150	1250	150
1150	1350	50
1150	1350	150
1025	1225	225
1025	1225	275
1025	1275	225
1025	1275	275
1075	1225	225
1075	1225	275
1075	1275	225
1075	1275	275
1025	1225	325
1025	1225	375
1025	1275	325
1025	1275	375
1075	1225	325
1075	1225	375
1075	1275	325
1075	1275	375
1025	1325	225
1025	1325	275
1025	1375	225
1025	1375	275
1075	1325	225
1075	1325	275
1075	1375	225
1075	1375	275
1050	1350	350
1125	1225	225
1125	1225	275
1125	1275	225
1125	1275	275
1175	1225	225
1175	1225	275
1175	1275	225
1175	1275	275
1125	1225	325
1125	1225	375
1125	1275	325
1125	1275	375
1175	1225	325
1175	1225	375
1175	1275	325
1175	1275	375
1125	1325	225
1125	1325	275
1125	1375	225
1125	1375	275
1175	1325	225
1175	1325	275
1175	1375	225
1175	1375	275
1150	1350	350
1050	1250	450
1050	1250	550
1050	1350	450
1050	1350	550
1150	1250	450
1150	1250	550
1150	1350	450
1150	1350	550
1050	1250	650
1050	1250	750
1050	1350	650
1050	1350	750
1150	1250	650
1150	1250	750
1150	1350	650
1150	1350	750
1100	1300	900
1050	1450	50
1050	1450	150
1050	1550	50
1050	1550	150
1150	1450	50
1150	1450	150
1150	1550	50
1150	1550	150
1025	1425	225
1025	1425	275
1025	1475	225
1025	1475	275
1075	1425	225
1075	1425	275
1075	1475	225
1075	1475	275
1050	1450	350
1025	1525	225
1025	1525	275
1025	1575	225
1025	1575	275
1075	1525	225
1075	1525	275
1075	1575	225
1075	1575	275
1025	1525	325
1025	1525	375
1025	1575	325
1025	1575	375
1075	1525	325
1075	1525	375
1075	1575	325
1075	1575	375
1125	1425	225
1125	1425	275
1125	1475	225
1125	1475	275
1175	1425	225
1175	1425	275
1175	1475	225
1175	1475	275
1150	1450	350
1125	1525	225
1125	1525	275
1125	1575	225
1125	1575	275
1175	1525	225
1175	1525	275
1175	1575	225
1175	1575	275
1125	1525	325
1125	1525	375
1125	1575	325
1125	1575	375
1175	1525	325
1175	1525	375
1175	1575	325
1175	1575	375
1050	1450	450
1050	1450	550
1050	1550	450
1050	1550	550
1150	1450	450
1150	1450	550
1150	1550	450
1150	1550	550
1050	1450	650
1050	1450	750
1050	1550	650
1050	1550	750
1150	1450	650
1150	1450	750
1150	1550	650
1150	1550	750
1100	1500	900
1100	1700	100
1050	1650	250
1050	1650	350
1050	1750	250
1050	1750	350
[...]
CELL_DATA	1501
SCALARS model double 1
LOOKUP_TABLE table0
0.000818258
-1.09196
12.3174
-10.2061
-29.8501
0.00566902
-1.57265
3.02313
-15.115
-29.8836
0.00151343
-1.2995
-6.11621
-20.1273
-32.59
0.00731004
-2.12359
-12.6363
-23.8204
-38.6071
0.00198252
-2.14829
-5.63532
-24.3659
-45.3746
0.00123747
-1.81257
-2.46456
-24.9669
-49.4576
0.0161062
-2.46515
6.24531
-20.4234
-46.8803
0.00514416
-1.65123
13.3612
-11.7435
-36.5281
0.0048473
-1.61349
6.8736
-4.68168
-21.0708
-0.00369936
-0.957149
10.7637
4.10455
-7.4603
0.012674
-2.4326
2.46886
-19.94
-38.709
0.0155587
-6.16402
-3.86624
-11.0906
-20.764
0.00892208
-11.7471
-13.8508
-4.63117
-4.97712
0.0243923
-15.9029
-10.6623
2.24754
2.99156
0.0293504
-15.0356
-12.8623
-4.14113
-5.27139
0.0208177
-10.506
-13.9987
-10.7661
-16.3262
0.00744653
-6.70282
-6.72139
-12.0676
-22.9578
0.00553661
-4.02076
-8.0866
-14.7012
-28.1187
-0.00814649
-1.62147
0.377792
-14.0606
-32.2555
-0.00592055
-1.66947
9.49348
-10.7171
-32.3038
0.00441491
-4.28531
1.68337
-23.1241
-38.3129
0.00862457
-14.7814
5.77987
6.83086
2.8945
0.0807207
-39.0531
-35.1073
-46.3799
-25.2476
-45.2464
-17.3681
71.4432
67.9206
30.9091
46.0021
50.7701
0.14525
-81.4931
-18.7146
-62.2784
-12.0107
113.378
128.24
110.922
127.986
11.0542
31.6538
21.1763
42.0812
130.448
117.452
129.374
118.842
78.3294
77.8274
0.0120727
-71.3919
-33.0721
-35.5894
-33.7483
68.5879
55.9511
-54.326
-40.3228
21.6825
48.2363
58.9897
0.0470685
-28.5011
-3.96675
22.0069
32.5238
0.0203851
-20.592
-8.21257
10.0846
14.9578
-0.00471515
-12.0405
-12.893
-4.01701
-6.91872
-0.014474
-6.75499
-0.77371
-16.298
-36.2842
-0.0123879
-2.29142
14.1372
-20.1412
-51.8137
0.0050491
-3.38636
-19.3905
-25.4446
-30.046
0.00611853
-21.2392
10.904
22.9859
23.6694
0.0399295
-0.42959
-0.022822
35.5986
0.00656207
-3.84163
-0.327928
76.9516
-15.5547
9.12649
49.7193
76.2104
113.049
144.19
54.623
88.3211
119.536
157.412
149.495
-11.6151
10.02
78.0939
111.715
154.099
193.563
132.823
157.548
198.093
229.578
203.819
35.3478
52.6316
157.276
139.279
49.1216
74.984
196.666
171.812
98.746
92.6555
-0.0726811
91.043
-0.0736339
89.7684
-0.22745
115.424
-0.235672
111.782
219.806
260.073
208.698
256.613
277.175
330.746
267.2
326.943
242.81
201.542
242.077
202.785
301.749
243.276
301.937
245.144
158.133
110.528
163.811
124.001
184.68
131.564
187.847
142.377
124.366
0.0476811
28.5678
0.198218
3.96043
-0.383578
72.4504
0.123882
-11.4373
114.337
153.503
57.2668
89.8174
130.566
177.617
69.7775
108.817
146.839
-48.0678
-13.2554
163.99
214.669
102.327
145.955
208.232
249.832
145.934
182.883
210.772
-23.4103
24.0169
154.23
140.263
32.2049
57.3323
203.02
179.249
68.8987
89.2972
103.075
108.573
0.0319378
-47.2786
-4.31236
56.3688
80.7501
0.0454798
-39.8283
12.653
56.5746
74.0944
0.0607744
-30.8929
9.52054
36.3265
41.1167
-0.0108997
-14.2712
0.638522
-11.0797
-29.7213
-0.0121765
-2.34141
-4.17343
-35.2383
-66.543
0.00927834
-2.64985
-12.1355
-10.7253
-12.0356
0.00694774
-13.7361
15.3786
18.5855
16.7691
0.163375
-37.7177
8.52869
223.185
215.07
-55.3631
4.13407
82.9655
107.137
48.1039
70.306
186.255
154.362
33.8244
45.3023
101.89
87.7026
65.9135
55.6543
-0.0735953
77.1397
-0.262573
83.3748
0.0327527
0.517637
-0.145973
13.4509
252.409
304.244
247.916
296.009
114.096
156.388
90.7187
134.458
271.813
214.314
267.338
213.396
144.526
114.188
132.081
108.961
158.784
109.09
158.788
115.996
80.3502
53.0334
83.1863
62.0886
74.9268
-0.00169444
218.831
206.618
-37.5976
18.0497
51.899
85.0766
-68.5537
-17.5265
184.037
157.179
63.7017
80.7377
85.3043
78.9345
22.7844
40.1305
71.5273
76.7772
0.0316734
-61.0054
8.70912
70.3364
97.3658
0.0278067
-2.33735
0.102373
15.6646
-0.0503277
30.4345
0.168423
99.1031
3.59579
6.42065
41.0663
58.4595
58.8244
66.9812
94.8432
87.9867
121.157
117.383
125.151
129.316
155.837
160.283
95.067
98.9228
120.044
121.488
132.291
135.954
155.891
156.332
38.0504
53.3816
78.1939
89.1825
86.6941
97.4574
137.773
140.812
121.901
137.566
0.0874735
22.3569
0.218319
-1.22146
0.189561
104.088
0.245053
16.2067
54.4998
64.8472
-6.95468
12.6995
125.151
122.476
103.413
103.57
161.953
164.322
135.789
140.239
123.195
124.067
108.66
112.855
158.208
157.965
141.513
145.079
42.184
67.4091
77.6583
87.7098
42.5251
60.5296
138.49
140.232
87.8875
100.33
110.837
112.085
0.0747932
-24.4656
-4.30425
3.52286
-9.07081
0.00738619
-3.67968
-23.2935
-41.7694
-67.7512
-0.000174506
-0.265759
15.5306
8.17018
3.58366
0.00354443
4.56607
1.61161
-11.4279
-18.0089
-0.0232296
1.11054
6.97279
-18.2714
-9.46658
30.9232
-11.0046
-70.1591
-98.1649
8.63919
1.90221
-6.06987
-9.78042
-39.5129
-53.6731
-106.586
-101.284
-45.3887
-46.2406
0.00426362
9.53707
-13.3507
-36.5496
-44.0637
-133.67
-171.215
-159.389
-190.765
-17.7359
-18.771
-33.7625
-27.355
-166.149
-143.786
-177.605
-151.489
-18.065
-15.3145
-22.6512
-15.9462
-119.766
-93.0553
-122.215
-94.1453
-11.1241
-9.2826
-7.32153
-3.9822
-74.6149
-75.1418
-70.2401
-69.1556
-0.0553594
-25.8312
-24.479
-24.2752
-16.503
-13.6661
-119.297
-116.432
-59.8352
-64.8781
-21.3782
-7.15517
-0.184742
16.9036
-97.7071
-74.1617
-52.3788
-34.0412
0.697646
4.62533
22.8509
27.8866
-56.0511
-54.0733
-22.1725
-19.1808
0.015315
-6.67782
-29.475
-50.3301
-20.8161
-16.9247
-21.5613
-50.0143
-10.8735
-15.2568
2.01702
23.5229
54.2713
-21.9284
-12.6146
28.9896
56.1609
24.5832
43.0529
76.8044
87.369
3.19383
20.4179
71.4912
79.019
72.2161
0.348283
26.5133
0.791564
104.077
0.289886
28.0911
0.182591
129.802
13.0865
24.6009
76.8739
94.8873
10.0797
22.559
78.559
97.6614
37.5193
53.522
97.6441
108.994
39.5662
57.5494
102.038
114.54
131.993
154.453
170.447
190.152
144.553
169.011
183.333
207.595
199.409
9.61083
23.7024
84.8877
103.622
6.60057
27.2453
83.5163
107.665
44.3019
65.4484
112.306
127.77
51.2414
75.0826
121.55
138.714
160.681
183.25
202.676
227.025
158.129
188.468
205.773
234.187
238.488
112.336
127.159
195.537
186.281
134.91
147.288
236.909
219.708
132.112
129.068
174.917
158.218
144.583
137.272
195.405
172.267
159.437
0.771526
106.363
0.417621
27.4013
0.15171
129.812
0.228007
21.6776
174.136
192.315
140.573
161.122
183.439
208.72
146.715
174.083
194.242
80.5182
101.476
29.2451
45.3551
84.9274
112.702
31.0573
52.8803
115.965
128.435
62.2033
76.9286
132.092
146.165
74.8089
91.5162
202.543
228.729
160.726
188.363
209.18
236.64
163.284
194.631
234.571
88.4145
120.997
26.4876
53.9638
91.7167
123.886
30.0484
57.5741
145.048
162.826
81.693
101.661
151.405
170.975
85.4577
105.399
194.497
184.943
115.437
125.514
235.717
218.593
138.272
146.022
172.429
152.681
130.997
121.664
194.86
169.147
148.708
136.447
147.288
0.00233368
-26.5993
-16.7713
-25.2493
-34.9962
-41.2521
-16.6837
-32.5366
-32.7668
18.3936
42.4905
-23.5122
-3.1839
25.2442
50.0814
-20.3838
-0.466206
22.6993
13.9256
0.0181097
-6.98326
-19.6305
-29.6021
-52.9728
-0.0141286
2.79487
14.2349
10.6359
9.43464
-0.0252398
20.1311
-15.3592
-35.9914
-45.2258
-0.311574
1.36611
0.00892823
-42.9105
-0.256634
-2.99472
0.101755
-65.395
15.1319
-25.9869
-40.7813
-66.2783
-111.578
-139.939
-54.1107
-84.8207
-124.583
-158.445
-159.767
9.70336
-30.1852
-72.2541
-103.728
-151.222
-190.852
-122.815
-146.45
-190.493
-223.762
-129.345
-141.724
-211.255
-221.843
-153.706
-160.199
-226.057
-231.486
-62.9783
-85.7649
-173.048
-165.636
-58.2002
-83.6877
-190.154
-179.052
-123.776
-124.525
0.255364
-107.248
0.113563
-95.6169
0.139482
-127.672
-0.210219
-119.142
-230.547
-276.355
-223.556
-277.786
-278.779
-324.657
-243.59
-301.249
-264.486
-227.082
-270.117
-233.385
-293.87
-248.326
-291.979
-253.307
-184.109
-143.189
-189.27
-150.372
-203.606
-160.554
-208.056
-168.165
-153.188
0.554817
-60.24
-0.0149984
5.54917
0.257079
-74.5641
0.0247212
5.71675
-130.082
-175.984
-6.0654
-55.1671
-162.181
-198.008
-108.648
-141.1
-163.094
-197.998
-108.8
-140.747
-197.305
-21.9586
-80.9085
-192.112
-180.317
-96.879
-103.855
-210.815
-196.556
-113.01
-116.327
-152.061
-122.084
-89.912
-70.0857
-165.879
-137.831
-103.095
-86.2871
-101.652
-102.323
-54.3527
-52.9584
-118.251
-120.982
-71.7773
-72.5047
0.0794767
-12.3946
-30.9051
-25.7895
-0.0128208
-17.1672
-45.3739
-45.9954
-11.4027
-37.7428
-30.6228
30.8315
52.7669
-49.0527
-39.0437
23.8262
44.6538
-17.07
-3.54354
62.678
65.8266
-25.5781
-14.7868
50.2186
51.1099
6.25777
9.9736
63.3596
68.2479
-8.237
-6.58182
45.4199
48.242
0.50428
15.4077
0.481673
80.5417
0.485547
0.824667
-0.0671137
100.934
12.8835
35.5074
78.8136
112.169
12.372
42.6245
78.5328
122.562
61.0228
85.6417
139.432
160.447
71.1792
96.912
156.1
176.366
143.58
190.304
187.141
237.193
147.143
205.45
191.864
256.799
219.491
242.486
268.607
285.56
241.984
261.677
294.139
307.465
0.905797
39.219
86.4955
136.22
0.0204008
40.9472
99.0495
146.082
71.7603
98.8329
170.565
187.012
75.2102
101.829
174.788
187.365
180.569
247.358
236.709
309.931
238.369
296.897
311.458
370.487
279.543
284.954
337.344
335.678
302.292
296.882
364.012
347.326
154.319
157.862
266.037
237.998
161.269
153.836
263.625
238.03
308.879
280.696
260.592
235.076
302.077
273.503
225.474
208.685
256.936
235.15
215.64
200.086
243.562
224.15
145.511
132.488
200.333
170.466
132.121
119.807
176.922
153.628
147.843
0.439538
79.8549
0.331671
12.2449
-0.114226
102.922
0.317874
5.29778
188.727
239.011
146.603
196.02
190.011
256.312
144.847
206.713
269.755
285.341
227.87
246.49
294.741
308.086
245.657
264.533
85.4718
125.999
27.2756
57.9478
80.0524
128.805
25.2251
57.5399
157.776
176.943
88.4802
112.286
164.493
185.019
87.6194
109.624
235.74
309.166
178.863
247.258
313.785
371.264
241.534
297.893
336.839
336.123
279.391
286.247
364.054
347.485
301.314
296.328
85.9753
137.509
15.4266
50.4779
100.657
144.9
11.1272
45.689
173.449
189.931
85.152
106.794
173.46
185.411
81.4625
102.798
267.909
239.158
154.464
154.137
309.799
283.033
268.695
249.241
303.227
276.194
264.597
246.075
259.49
238.147
236.504
224.391
246.99
228.348
227.033
216.227
194.182
188.153
119.202
127.874
186.796
181.87
117.07
126.481
142.714
200.931
168.467
152.512
136.068
179.051
152.401
139.246
125.737
138.891
0.00412364
-39.9058
-21.0403
-27.6442
-31.4595
-70.7145
-45.7339
-18.3454
-40.6609
23.4583
49.8165
-21.5347
-1.93965
4.34643
38.5348
-28.4095
-6.0554
19.2431
9.96097
0.0172037
-6.27685
-19.5928
-30.8315
-53.6623
0.00626533
1.72356
23.7958
21.1456
22.2761
-0.00178217
14.6439
15.5503
-14.6122
-26.5957
-0.317942
4.65968
-20.1943
-225.567
-199.684
73.5745
38.4082
-63.2525
-70.8504
-37.4209
-61.1835
-169.26
-148.299
3.36384
-29.274
-78.2714
-86.1758
-95.6112
-103.286
0.364446
-125.999
-0.0851731
-95.4409
0.0539817
-18.6038
-0.151603
-20.3191
-258.018
-291.793
-230.738
-275.584
-203.807
-233.245
-180.388
-220.762
-292.467
-278.722
-293.52
-292.819
-239.446
-231.205
-244.83
-248.007
-204.92
-249.304
-178.971
-218.52
-161.138
-202.055
-139.952
-176.025
-234.806
-107.178
-133.175
-95.9662
-125.609
-19.3249
-47.3873
-27.5275
-54.4312
-102.154
-56.8762
-95.3547
-259.264
-244.224
-276.24
-265.781
-218.074
-209.141
-236.689
-231.571
-201.827
-233.849
-208.627
-113.483
-119.565
-118.009
-124.904
-175.554
-145.399
-179.315
-152.799
-120.539
-109.503
-127.228
-118.833
-133.849
0.259095
-66.0211
0.0790582
1.55086
-0.221029
-13.1837
0.015348
0.403309
-144.904
-171.702
-99.4271
-122.466
-109.214
-132.619
-77.0854
-95.6412
-148.476
-15.3915
-57.8416
-13.6094
-49.9639
38.7889
1.44308
-165.337
-161.828
-86.1447
-95.4528
-84.9531
-100.545
-36.7233
-56.3539
-91.0236
-89.8518
0.0161228
-11.4218
-35.5245
-27.9025
21.1749
34.9815
-5.46547
-4.45866
26.0924
35.2374
4.04635
4.01331
0.617018
62.4657
115.883
377.059
289.611
-86.9296
-17.6683
40.6092
21.8793
116.32
111.176
212.364
166.902
37.0982
62.3387
47.2732
72.5156
81.3847
83.2066
0.562673
375.376
292.778
39.0629
97.5958
52.7138
39.0679
-76.9173
-1.62736
211.699
169.381
117.288
115.062
53.8026
74.9732
47.9079
68.9793
79.0789
74.6303
0.0733078
-22.3758
-10.1731
-4.1241
-18.4079
-0.000809699
-2.5964
-22.2942
-40.3425
-67.0796
0.00692691
1.09686
3.59027
17.191
25.068
-0.0129513
6.68558
5.01051
3.39637
3.36161
-0.0294965
16.2812
6.5496
-11.9187
-19.1848
-0.0655604
54.3809
14.181
6.32097
-0.0323999
15.4689
18.0701
21.2156
20.1894
-17.2224
-38.1015
-24.4638
-41.2922
15.9629
4.21815
11.3386
-1.17169
-26.0451
-33.4783
-0.0229165
10.6503
-2.44567
-15.7453
-19.109
0.00649297
-4.66215
20.9802
10.872
8.86791
0.0570558
-18.4485
5.30856
16.7352
21.9731
0.0419203
-17.9345
-7.18373
7.46395
5.94353
-0.00789447
-9.47867
14.5536
-5.54965
-32.4165
-0.0225527
-3.44321
8.22605
-17.4153
-57.1975
0.000278333
0.325408
0.835624
10.9292
18.6793
-0.00917607
1.46699
5.31296
8.71969
11.5457
-0.00627072
1.87595
26.619
19.7124
15.051
-0.00796225
3.59247
21.4708
14.1678
11.2449
-0.0167917
2.71347
4.87085
6.71876
11.4374
0.00687192
-2.01664
-0.949287
3.03942
11.2683
0.0155057
-1.03337
-27.3961
-10.5809
1.5331
0.0190571
-0.91967
-23.9044
-18.5711
-19.1291
0.0271372
-3.05599
-0.0552323
-18.6849
-45.4062
-0.00145554
-4.00294
23.7858
-10.2943
-58.4879
SCALARS m0 double 1
LOOKUP_TABLE table1
0
0
0
0
0
0
0
0
0
0
0
0
0
0
0
0
0
0
0
0
0
0
0
0
0
0
0
0
0
0
0
0
0
0
0
0
0
0
0
0
0
0
0
0
0
0
0
0
0
0
0
0
0
0
0
0
0
0
0
0
0
0
0
0
0
0
0
0
0
0
0
0
0
0
0
0
0
0
0
0
0
0
0
0
0
0
0
0
0
0
0
0
0
0
0
0
0
0
0
0
0
0
0
0
0
0
0
0
0
0
0
0
0
0
0
0
0
0
0
0
0
0
0
0
0
0
0
0
0
0
0
0
0
0
0
0
0
0
0
0
0
0
0
0
0
0
0
0
0
0
0
0
0
0
0
0
0
0
0
0
0
0
0
0
0
0
0
0
0
0
0
0
0
0
0
0
0
0
0
0
0
0
0
0
0
0
0
0
0
0
0
0
0
0
0
0
0
0
0
0
0
0
0
0
0
0
0
0
0
0
0
0
0
0
0
0
0
0
0
0
0
0
0
0
0
0
0
0
0
0
0
0
0
0
0
0
0
0
0
0
0
0
0
0
0
0
0
0
0
0
0
0
0
0
0
0
0
0
0
0
0
0
0
0
0
0
0
0
0
0
0
0
0
0
0
0
0
0
0
0
0
0
0
0
0
0
0
0
0
0
0
0
0
0
0
0
0
0
0
0
0
0
0
0
0
0
0
0
0
0
0
0
0
0
0
0
0
0
0
0
0
0
0
0
0
0
0
0
0
0
0
0
0
0
0
0
0
0
0
0
0
0
0
0
0
0
0
0
0
0
0
0
0
0
0
0
0
0
0
0
0
0
0
0
0
0
0
0
0
0
0
0
0
0
0
0
0
0
0
0
0
0
0
0
0
0
0
0
0
0
0
0
0
0
0
0
0
0
0
0
0
0
0
0
0
0
0
0
0
0
0
0
0
0
0
0
0
0
0
0
0
0
0
0
0
0
0
0
0
0
0
0
0
0
0
0
0
0
0
0
0
0
0
0
0
0
0
0
0
0
0
0
0
0
0
0
0
0
0
0
0
0
0
0
0
0
0
0
0
0
0
0
0
0
0
0
0
0
0
0
0
0
0
0
0
0
0
0
0
0
0
0
0
0
0
0
0
0
0
0
0
0
0
0
0
0
0
0
0
0
0
0
0
0
0
0
0
0
0
0
0
0
0
0
0
0
0
0
0
0
0
0
0
0
0
0
0
0
0
0
0
0
0
0
0
0
0
0
0
0
0
0
0
0
0
0
0
0
0
0
0
0
0
0
0
0
0
0
0
0
0
0
0
0
0
0
0
0
0
0
0
0
0
0
0
0
0
0
0
0
0
0
0
0
0
0
0
0
0
0
0
0
0
0
0
0
0
0
0
0
0
0
0
0
0
0
0
0
0
0
0
0
0
0
0
0
0
0
0
0
0
0
0
0
0
0
0
0
0
0
0
0
0
0
0
0
0
0
0
0
0
0
0
0
0
0
0
0
0
0
0
0
0
0
0
0
0
0
0
0
0
0
0
0
0
0
0
0
0
0
0
0
0
0
0
0
0
0
0
0
0
0
0
0
0
0
0
0
0
0
0
0
0
0
0
0
0
0
0
0
0
0
0
0
0
0
0
0
0
0
0
0
0
0
0
0
0
0
0
0
0
0
0
0
0
0
0
0
0
0
0
0
0
0
0
0
0
0
0
0
0
0
0
0
0
0
0
0
0
0
0
0
0
0
0
0
0
0
0
0
0
0
0
0
0
0
0
0
0
0
0
0
0
0
0
0
0
0
0
0
0
0
0
0
0
0
0
0
0
0
0
0
0
0
0
0
0
0
0
0
0
0
0
0
0
0
0
0
0
0
0
0
0
0
0
0
0
0
0
0
0
0
0
0
0
0
0
0
0
0
0
0
0
0
0
0
0
0
0
0
0
0
0
0
0
0
0
0
0
0
0
0
0
0
0
0
0
0
0
0
0
0
0
0
0
0
0
0
0
0
0
0
0
0
0
0
0
0
0
0
0
0
0
0
0
0
0
0
0
0
0
0
0
0
0
0
0
0
0
0
0
0
0
0
0
0
0
0
0
0
0
0
0
0
0
0
0
0
0
0
0
0
0
0
0
0
0
0
0
0
0
0
0
0
0
0
0
0
0
0
0
0
0
0
0
0
0
0
0
0
0
0
0
0
0
0
0
0
0
0
0
0
0
0
0
0
0
0
0
0
0
0
0
0
0
0
0
0
0
0
0
0
0
0
0
0
0
0
0
0
0
0
0
0
0
0
0
0
0
0
0
0
0
0
0
0
0
0
0
0
0
0
0
0
0
0
0
0
0
0
0
0
0
0
0
0
0
0
0
0
0
0
0
0
0
0
0
0
0
0
0
0
0
0
0
0
0
0
0
0
0
0
0
0
0
0
0
0
0
0
0
0
0
0
0
0
0
0
0
0
0
0
0
0
0
0
0
0
0
0
0
0
0
0
0
0
0
0
0
0
0
0
0
0
0
0
0
0
0
0
0
0
0
0
0
0
0
0
0
0
0
0
0
0
0
0
0
0
0
0
0
0
0
0
0
0
0
0
0
0
0
0
0
0
0
0
0
0
0
0
0
0
0
0
0
0
0
0
0
0
0
0
0
0
0
0
0
0
0
0
0
0
0
0
0
0
0
0
0
0
0
0
0
0
0
0
0
0
0
0
0
0
0
0
0
0
0
0
0
0
0
0
0
0
0
0
0
0
0
0
0
0
0
0
0
0
0
0
0
0
0
0
0
0
0
0
0
0
0
0
0
0
0
0
0
0
0
0
0
0
0
0
0
0
0
0
0
0
0
0
0
0
0
0
0
0
0
0
0
0
0
0
0
0
0
0
0
0
0
0
0
0
0
0
0
0
0
0
0
0
0
0
0
0
0
0
0
0
0
0
0
0
0
0
0
0
0
0
0
0
0
0
0
0
0
0
0
0
0
0
0
0
0
0
0
0
0
0
0
0
0
0
0
0
0
0
0
0
0
0
0
0
0
0
0
0
0
0
0
0
0
0
0
0
0
0
0
0
0
0
0
0
0
0
0
0
0
0
0
0
0
0
0
0
0
0
0
0
0
0
0
0
0
0
0
0
0
0
0
0
0
0
0
0
0
0
0
0
0
0
0
0
0
0
0
0
0
0
0
0
0
0
0
0
0
0
0
0
0
0
0
0
0
0
0
0
0
0
0
0
0
0
0
0
0
0
0
0
0
0
0
0
0
0
0
0
0
0
0
0
0
0
0
0
0
0
0
0
0
0
0
0
0
0
0
0
0
0
0
0
0
0
0
0
0
0
0
0
0
0
0
0
0
0
0
0
0
0
0
0
0
0
0
0
0
0
0
0
0
0
0
0
0
0
0
0
0
0
0
0
0
SCALARS m0s double 1
LOOKUP_TABLE table2
0
0
0
0
0
0
0
0
0
0
0
0
0
0
0
0
0
0
0
0
0
0
0
0
0
0
0
0
0
0
0
0
0
0
0
0
0
0
0
0
0
0
0
0
0
0
0
0
0
0
0
0
0
0
0
0
0
0
0
0
0
0
0
0
0
0
0
0
0
0
0
0
0
0
0
0
0
0
0
0
0
0
0
0
0
0
0
0
0
0
0
0
0
0
0
0
0
0
0
0
0
0
0
0
0
0
0
0
0
0
0
0
0
0
0
0
0
0
0
0
0
0
0
0
0
0
0
0
0
0
0
0
0
0
0
0
0
0
0
0
0
0
0
0
0
0
0
0
0
0
0
0
0
0
0
0
0
0
0
0
0
0
0
0
0
0
0
0
0
0
0
0
0
0
0
0
0
0
0
0
0
0
0
0
0
0
0
0
0
0
0
0
0
0
0
0
0
0
0
0
0
0
0
0
0
0
0
0
0
0
0
0
0
0
0
0
0
0
0
0
0
0
0
0
0
0
0
0
0
0
0
0
0
0
0
0
0
0
0
0
0
0
0
0
0
0
0
0
0
0
0
0
0
0
0
0
0
0
0
0
0
0
0
0
0
0
0
0
0
0
0
0
0
0
0
0
0
0
0
0
0
0
0
0
0
0
0
0
0
0
0
0
0
0
0
0
0
0
0
0
0
0
0
0
0
0
0
0
0
0
0
0
0
0
0
0
0
0
0
0
0
0
0
0
0
0
0
0
0
0
0
0
0
0
0
0
0
0
0
0
0
0
0
0
0
0
0
0
0
0
0
0
0
0
0
0
0
0
0
0
0
0
0
0
0
0
0
0
0
0
0
0
0
0
0
0
0
0
0
0
0
0
0
0
0
0
0
0
0
0
0
0
0
0
0
0
0
0
0
0
0
0
0
0
0
0
0
0
0
0
0
0
0
0
0
0
0
0
0
0
0
0
0
0
0
0
0
0
0
0
0
0
0
0
0
0
0
0
0
0
0
0
0
0
0
0
0
0
0
0
0
0
0
0
0
0
0
0
0
0
0
0
0
0
0
0
0
0
0
0
0
0
0
0
0
0
0
0
0
0
0
0
0
0
0
0
0
0
0
0
0
0
0
0
0
0
0
0
0
0
0
0
0
0
0
0
0
0
0
0
0
0
0
0
0
0
0
0
0
0
0
0
0
0
0
0
0
0
0
0
0
0
0
0
0
0
0
0
0
0
0
0
0
0
0
0
0
0
0
0
0
0
0
0
0
0
0
0
0
0
0
0
0
0
0
0
0
0
0
0
0
0
0
0
0
0
0
0
0
0
0
0
0
0
0
0
0
0
0
0
0
0
0
0
0
0
0
0
0
0
0
0
0
0
0
0
0
0
0
0
0
0
0
0
0
0
0
0
0
0
0
0
0
0
0
0
0
0
0
0
0
0
0
0
0
0
0
0
0
0
0
0
0
0
0
0
0
0
0
0
0
0
0
0
0
0
0
0
0
0
0
0
0
0
0
0
0
0
0
0
0
0
0
0
0
0
0
0
0
0
0
0
0
0
0
0
0
0
0
0
0
0
0
0
0
0
0
0
0
0
0
0
0
0
0
0
0
0
0
0
0
0
0
0
0
0
0
0
0
0
0
0
0
0
0
0
0
0
0
0
0
0
0
0
0
0
0
0
0
0
0
0
0
0
0
0
0
0
0
0
0
0
0
0
0
0
0
0
0
0
0
0
0
0
0
0
0
0
0
0
0
0
0
0
0
0
0
0
0
0
0
0
0
0
0
0
0
0
0
0
0
0
0
0
0
0
0
0
0
0
0
0
0
0
0
0
0
0
0
0
0
0
0
0
0
0
0
0
0
0
0
0
0
0
0
0
0
0
0
0
0
0
0
0
0
0
0
0
0
0
0
0
0
0
0
0
0
0
0
0
0
0
0
0
0
0
0
0
0
0
0
0
0
0
0
0
0
0
0
0
0
0
0
0
0
0
0
0
0
0
0
0
0
0
0
0
0
0
0
0
0
0
0
0
0
0
0
0
0
0
0
0
0
0
0
0
0
0
0
0
0
0
0
0
0
0
0
0
0
0
0
0
0
0
0
0
0
0
0
0
0
0
0
0
0
0
0
0
0
0
0
0
0
0
0
0
0
0
0
0
0
0
0
0
0
0
0
0
0
0
0
0
0
0
0
0
0
0
0
0
0
0
0
0
0
0
0
0
0
0
0
0
0
0
0
0
0
0
0
0
0
0
0
0
0
0
0
0
0
0
0
0
0
0
0
0
0
0
0
0
0
0
0
0
0
0
0
0
0
0
0
0
0
0
0
0
0
0
0
0
0
0
0
0
0
0
0
0
0
0
0
0
0
0
0
0
0
0
0
0
0
0
0
0
0
0
0
0
0
0
0
0
0
0
0
0
0
0
0
0
0
0
0
0
0
0
0
0
0
0
0
0
0
0
0
0
0
0
0
0
0
0
0
0
0
0
0
0
0
0
0
0
0
0
0
0
0
0
0
0
0
0
0
0
0
0
0
0
0
0
0
0
0
0
0
0
0
0
0
0
0
0
0
0
0
0
0
0
0
0
0
0
0
0
0
0
0
0
0
0
0
0
0
0
0
0
0
0
0
0
0
0
0
0
0
0
0
0
0
0
0
0
0
0
0
0
0
0
0
0
0
0
0
0
0
0
0
0
0
0
0
0
0
0
0
0
0
0
0
0
0
0
0
0
0
0
0
0
0
0
0
0
0
0
0
0
0
0
0
0
0
0
0
0
0
0
0
0
0
0
0
0
0
0
0
0
0
0
0
0
0
0
0
0
0
0
0
0
0
0
0
0
0
0
0
0
0
0
0
0
0
0
0
0
0
0
0
0
0
0
0
0
0
0
0
0
0
0
0
0
0
0
0
0
0
0
0
0
0
0
0
0
0
0
0
0
0
0
0
0
0
0
0
0
0
0
0
0
0
0
0
0
0
0
0
0
0
0
0
0
0
0
0
0
0
0
0
0
0
0
0
0
0
0
0
0
0
0
0
0
0
0
0
0
0
0
0
0
0
0
0
0
0
0
0
0
0
0
0
0
0
0
0
0
0
0
0
0
0
0
0
0
0
0
0
0
0
0
0
0
0
0
0
0
0
0
0
0
0
0
0
0
0
0
0
0
0
0
0
0
0
0
0
0
0
0
0
0
0
0
0
0
0
0
0
0
0
0
0
0
0
0
0
0
0
0
0
0
0
0
0
0
0
0
0
0
0
0
0
0
0
0
0
0
0
0
0
0
0
0
0
0
0
0
0
0
0
0
0
0
0
0
0
0
0
0
0
0
0
0
0
0
0
0
0
0
0
0
0
0
0
0
0
0
0
0
0
0
0
0
0
0
0
0
0
0
0
0
0
0
0

POINT_DATA	1501
SCALARS model double 1
LOOKUP_TABLE table0
0.000818258
-1.09196
12.3174
-10.2061
-29.8501
0.00566902
-1.57265
3.02313
-15.115
-29.8836
0.00151343
-1.2995
-6.11621
-20.1273
-32.59
0.00731004
-2.12359
-12.6363
-23.8204
-38.6071
0.00198252
-2.14829
-5.63532
-24.3659
-45.3746
0.00123747
-1.81257
-2.46456
-24.9669
-49.4576
0.0161062
-2.46515
6.24531
-20.4234
-46.8803
0.00514416
-1.65123
13.3612
-11.7435
-36.5281
0.0048473
-1.61349
6.8736
-4.68168
-21.0708
-0.00369936
-0.957149
10.7637
4.10455
-7.4603
0.012674
-2.4326
2.46886
-19.94
-38.709
0.0155587
-6.16402
-3.86624
-11.0906
-20.764
0.00892208
-11.7471
-13.8508
-4.63117
-4.97712
0.0243923
-15.9029
-10.6623
2.24754
2.99156
0.0293504
-15.0356
-12.8623
-4.14113
-5.27139
0.0208177
-10.506
-13.9987
-10.7661
-16.3262
0.00744653
-6.70282
-6.72139
-12.0676
-22.9578
0.00553661
-4.02076
-8.0866
-14.7012
-28.1187
-0.00814649
-1.62147
0.377792
-14.0606
-32.2555
-0.00592055
-1.66947
9.49348
-10.7171
-32.3038
0.00441491
-4.28531
1.68337
-23.1241
-38.3129
0.00862457
-14.7814
5.77987
6.83086
2.8945
0.0807207
-39.0531
-35.1073