# vtk DataFile Version 3.0
Gravity inversion using rectangular prisms
ASCII
DATASET UNSTRUCTURED_GRID

POINTS	1501	double
100	100	100
100	100	300
100	100	500
100	100	700
100	100	900
100	300	100
100	300	300
100	300	500
100	300	700
100	300	900
100	500	100
100	500	300
100	500	500
100	500	700
100	500	900
100	700	100
100	700	300
100	700	500
100	700	700
100	700	900
100	900	100
100	900	300
100	900	500
100	900	700
100	900	900
100	1100	100
100	1100	300
100	1100	500
100	1100	700
100	1100	900
100	1300	100
100	1300	300
100	1300	500
100	1300	700
100	1300	900
100	1500	100
100	1500	300
100	1500	500
100	1500	700
100	1500	900
100	1700	100
100	1700	300
100	1700	500
100	1700	700
100	1700	900
100	1900	100
100	1900	300
100	1900	500
100	1900	700
100	1900	900
300	100	100
300	100	300
300	100	500
300	100	700
300	100	900
300	300	100
300	300	300
300	300	500
300	300	700
300	300	900
300	500	100
300	500	300
300	500	500
300	500	700
300	500	900
300	700	100
300	700	300
300	700	500
300	700	700
300	700	900
300	900	100
300	900	300
300	900	500
300	900	700
300	900	900
300	1100	100
300	1100	300
300	1100	500
300	1100	700
300	1100	900
300	1300	100
300	1300	300
300	1300	500
300	1300	700
300	1300	900
300	1500	100
300	1500	300
300	1500	500
300	1500	700
300	1500	900
300	1700	100
300	1700	300
300	1700	500
300	1700	700
300	1700	900
300	1900	100
300	1900	300
300	1900	500
300	1900	700
300	1900	900
500	100	100
500	100	300
500	100	500
500	100	700
500	100	900
500	300	100
500	300	300
500	300	500
500	300	700
500	300	900
500	500	100
450	450	250
450	450	350
450	550	250
450	550	350
550	450	250
550	450	350
550	550	250
550	550	350
500	500	500
500	500	700
500	500	900
500	700	100
450	650	250
450	650	350
450	750	250
450	750	350
550	650	250
550	650	350
550	750	250
550	750	350
450	650	450
450	650	550
450	750	450
450	750	550
550	650	450
550	650	550
550	750	450
550	750	550
500	700	700
500	700	900
500	900	100
450	850	250
450	850	350
450	950	250
450	950	350
550	850	250
550	850	350
550	950	250
550	950	350
500	900	500
500	900	700
500	900	900
500	1100	100
500	1100	300
500	1100	500
500	1100	700
500	1100	900
500	1300	100
500	1300	300
500	1300	500
500	1300	700
500	1300	900
500	1500	100
500	1500	300
500	1500	500
500	1500	700
500	1500	900
500	1700	100
500	1700	300
500	1700	500
500	1700	700
500	1700	900
500	1900	100
500	1900	300
500	1900	500
500	1900	700
500	1900	900
700	100	100
700	100	300
700	100	500
700	100	700
700	100	900
700	300	100
700	300	300
700	300	500
700	300	700
700	300	900
650	450	50
650	450	150
650	550	50
650	550	150
750	450	50
750	450	150
750	550	50
750	550	150
650	450	250
650	450	350
625	525	225
625	525	275
625	575	225
625	575	275
675	525	225
675	525	275
675	575	225
675	575	275
650	550	350
750	450	250
750	450	350
725	525	225
725	525	275
725	575	225
725	575	275
775	525	225
775	525	275
775	575	225
775	575	275
750	550	350
650	450	450
650	450	550
650	550	450
650	550	550
750	450	450
750	450	550
750	550	450
750	550	550
700	500	700
700	500	900
650	650	50
650	650	150
650	750	50
650	750	150
750	650	50
750	650	150
750	750	50
750	750	150
650	650	250
650	650	350
650	750	250
650	750	350
750	650	250
750	650	350
750	750	250
750	750	350
650	650	450
650	650	550
650	750	450
650	750	550
750	650	450
750	650	550
750	750	450
750	750	550
700	700	700
700	700	900
650	850	50
650	850	150
650	950	50
650	950	150
750	850	50
750	850	150
750	950	50
750	950	150
625	825	225
625	825	275
625	875	225
625	875	275
675	825	225
675	825	275
675	875	225
675	875	275
625	825	325
625	825	375
625	875	325
625	875	375
675	825	325
675	825	375
675	875	325
675	875	375
650	950	250
650	950	350
725	825	225
725	825	275
725	875	225
725	875	275
775	825	225
775	825	275
775	875	225
775	875	275
750	850	350
750	950	250
750	950	350
650	850	450
650	850	550
650	950	450
650	950	550
750	850	450
750	850	550
750	950	450
750	950	550
700	900	700
700	900	900
700	1100	100
700	1100	300
700	1100	500
700	1100	700
700	1100	900
700	1300	100
700	1300	300
700	1300	500
700	1300	700
700	1300	900
700	1500	100
700	1500	300
700	1500	500
700	1500	700
700	1500	900
700	1700	100
700	1700	300
700	1700	500
700	1700	700
700	1700	900
700	1900	100
700	1900	300
700	1900	500
700	1900	700
700	1900	900
900	100	100
900	100	300
900	100	500
900	100	700
900	100	900
900	300	100
900	300	300
900	300	500
900	300	700
900	300	900
900	500	100
850	450	250
850	450	350
850	550	250
850	550	350
950	450	250
950	450	350
950	550	250
950	550	350
850	450	450
850	450	550
850	550	450
850	550	550
950	450	450
950	450	550
950	550	450
950	550	550
900	500	700
900	500	900
850	650	50
850	650	150
850	750	50
850	750	150
950	650	50
950	650	150
950	750	50
950	750	150
850	650	250
850	650	350
850	750	250
850	750	350
950	650	250
950	650	350
950	750	250
950	750	350
850	650	450
850	650	550
850	750	450
850	750	550
950	650	450
950	650	550
950	750	450
950	750	550
850	650	650
850	650	750
850	750	650
850	750	750
950	650	650
950	650	750
950	750	650
950	750	750
900	700	900
900	900	100
850	850	250
850	850	350
850	950	250
850	950	350
950	850	250
950	850	350
950	950	250
950	950	350
850	850	450
850	850	550
850	950	450
850	950	550
950	850	450
950	850	550
950	950	450
950	950	550
900	900	700
900	900	900
900	1100	100
850	1050	250
850	1050	350
850	1150	250
850	1150	350
950	1050	250
950	1050	350
950	1150	250
950	1150	350
900	1100	500
900	1100	700
900	1100	900
850	1250	50
850	1250	150
850	1350	50
850	1350	150
950	1250	50
950	1250	150
950	1350	50
950	1350	150
850	1250	250
850	1250	350
850	1350	250
850	1350	350
950	1250	250
950	1250	350
925	1325	225
925	1325	275
925	1375	225
925	1375	275
975	1325	225
975	1325	275
975	1375	225
975	1375	275
925	1325	325
925	1325	375
925	1375	325
925	1375	375
975	1325	325
975	1325	375
975	1375	325
975	1375	375
850	1250	450
850	1250	550
850	1350	450
850	1350	550
950	1250	450
950	1250	550
950	1350	450
950	1350	550
900	1300	700
900	1300	900
850	1450	50
850	1450	150
850	1550	50
850	1550	150
950	1450	50
950	1450	150
950	1550	50
950	1550	150
850	1450	250
850	1450	350
850	1550	250
850	1550	350
925	1425	225
925	1425	275
925	1475	225
925	1475	275
975	1425	225
975	1425	275
975	1475	225
975	1475	275
925	1425	325
925	1425	375
925	1475	325
925	1475	375
975	1425	325
975	1425	375
975	1475	325
975	1475	375
950	1550	250
950	1550	350
850	1450	450
850	1450	550
850	1550	450
850	1550	550
950	1450	450
950	1450	550
950	1550	450
950	1550	550
900	1500	700
900	1500	900
900	1700	100
900	1700	300
900	1700	500
900	1700	700
900	1700	900
900	1900	100
900	1900	300
900	1900	500
900	1900	700
900	1900	900
1100	100	100
1100	100	300
1100	100	500
1100	100	700
1100	100	900
1100	300	100
1100	300	300
1100	300	500
1100	300	700
1100	300	900
1100	500	100
1050	450	250
1050	450	350
1050	550	250
1050	550	350
1150	450	250
1150	450	350
1150	550	250
1150	550	350
1050	450	450
1050	450	550
1050	550	450
1050	550	550
1150	450	450
1150	450	550
1150	550	450
1150	550	550
1100	500	700
1100	500	900
1100	700	100
1050	650	250
1050	650	350
1050	750	250
1050	750	350
1150	650	250
1150	650	350
1150	750	250
1150	750	350
1050	650	450
1050	650	550
1050	750	450
1050	750	550
1150	650	450
1150	650	550
1150	750	450
1150	750	550
1050	650	650
1050	650	750
1050	750	650
1050	750	750
1150	650	650
1150	650	750
1150	750	650
1150	750	750
1050	650	850
1050	650	950
1050	750	850
1050	750	950
1150	650	850
1150	650	950
1150	750	850
1150	750	950
1100	900	100
1050	850	250
1050	850	350
1050	950	250
1050	950	350
1150	850	250
1150	850	350
1150	950	250
1150	950	350
1050	850	450
1050	850	550
1050	950	450
1050	950	550
1150	850	450
1150	850	550
1150	950	450
1150	950	550
1050	850	650
1050	850	750
1050	950	650
1050	950	750
1150	850	650
1150	850	750
1150	950	650
1150	950	750
1050	850	850
1050	850	950
1050	950	850
1050	950	950
1150	850	850
1150	850	950
1150	950	850
1150	950	950
1100	1100	100
1050	1050	250
1050	1050	350
1050	1150	250
1050	1150	350
1150	1050	250
1150	1050	350
1150	1150	250
1150	1150	350
1050	1050	450
1050	1050	550
1050	1150	450
1050	1150	550
1150	1050	450
1150	1050	550
1150	1150	450
1150	1150	550
1050	1050	650
1050	1050	750
1050	1150	650
1050	1150	750
1150	1050	650
1150	1050	750
1150	1150	650
1150	1150	750
1100	1100	900
1050	1250	50
1050	1250	150
1050	1350	50
1050	1350	150
1150	1250	50
1150	1250	150
1150	1350	50
1150	1350	150
1025	1225	225
1025	1225	275
1025	1275	225
1025	1275	275
1075	1225	225
1075	1225	275
1075	1275	225
1075	1275	275
1050	1250	350
1025	1325	225
1025	1325	275
1025	1375	225
1025	1375	275
1075	1325	225
1075	1325	275
1075	1375	225
1075	1375	275
1050	1350	350
1125	1225	225
1125	1225	275
1125	1275	225
1125	1275	275
1175	1225	225
1175	1225	275
1175	1275	225
1175	1275	275
1125	1225	325
1125	1225	375
1125	1275	325
1125	1275	375
1175	1225	325
1175	1225	375
1175	1275	325
1175	1275	375
1125	1325	225
1125	1325	275
1125	1375	225
1125	1375	275
1175	1325	225
1175	1325	275
1175	1375	225
1175	1375	275
1150	1350	350
1050	1250	450
1050	1250	550
1050	1350	450
1050	1350	550
1150	1250	450
1150	1250	550
1150	1350	450
1150	1350	550
1050	1250	650
1050	1250	750
1050	1350	650
1050	1350	750
1150	1250	650
1150	1250	750
1150	1350	650
1150	1350	750
1100	1300	900
1050	1450	50
1050	1450	150
1050	1550	50
1050	1550	150
1150	1450	50
1150	1450	150
1150	1550	50
1150	1550	150
1025	1425	225
1025	1425	275
1025	1475	225
1025	1475	275
1075	1425	225
1075	1425	275
1075	1475	225
1075	1475	275
1050	1450	350
1025	1525	225
1025	1525	275
1025	1575	225
1025	1575	275
1075	1525	225
1075	1525	275
1075	1575	225
1075	1575	275
1025	1525	325
1025	1525	375
1025	1575	325
1025	1575	375
1075	1525	325
1075	1525	375
1075	1575	325
1075	1575	375
1125	1425	225
1125	1425	275
1125	1475	225
1125	1475	275
1175	1425	225
1175	1425	275
1175	1475	225
1175	1475	275
1150	1450	350
1125	1525	225
1125	1525	275
1125	1575	225
1125	1575	275
1175	1525	225
1175	1525	275
1175	1575	225
1175	1575	275
1125	1525	325
1125	1525	375
1125	1575	325
1125	1575	375
1175	1525	325
1175	1525	375
1175	1575	325
1175	1575	375
1050	1450	450
1050	1450	550
1050	1550	450
1050	1550	550
1150	1450	450
1150	1450	550
1150	1550	450
1150	1550	550
1050	1450	650
1050	1450	750
1050	1550	650
1050	1550	750
1150	1450	650
1150	1450	750
1150	1550	650
1150	1550	750
[...]
CELL_DATA	1501
SCALARS model double 1
LOOKUP_TABLE table0
0.000350502
-1.063
7.82742
-5.05237
-1.81555
0.00455115
-1.87693
2.40756
-17.9472
-16.8414
0.000711834
-1.67171
-3.70775
-17.4656
-19.9751
0.00690876
-2.31751
-7.72651
-19.1734
-26.0656
0.00144438
-2.60793
7.38193
-19.851
-39.1
0.00104205
-2.37278
7.44338
-25.286
-50.4177
0.0173411
-3.58693
16.25
-20.3193
-43.9921
0.00509236
-2.08884
17.8088
-5.27577
-22.6646
0.00351437
-0.84237
2.39852
3.91274
-0.192142
-0.00443547
0.0160847
3.68217
10.3594
8.09512
0.011652
-3.23891
8.81363
-22.1915
-43.4353
0.0124065
-6.79955
5.21672
-7.36866
-21.1938
0.00195061
-11.6025
-6.8465
-3.14526
-6.0513
0.0166893
-14.8512
-14.1945
-3.84422
-2.35358
0.0209144
-12.1886
-15.1867
-10.8354
-13.7432
0.0153971
-8.03971
-9.94347
-13.5334
-24.9464
0.00519911
-5.27673
11.7234
-9.07904
-26.3776
0.0032542
-1.79723
-1.98737
-13.6208
-26.3606
-0.0102435
0.580166
0.724585
-9.30419
-21.2689
-0.005715
-0.768243
2.76853
-1.91239
-17.7291
0.00287208
-4.92934
9.37601
-27.0245
-55.1104
0.00559623
-13.5198
5.72588
4.69737
-6.52319
0.0325645
-32.4593
-56.7025
-51.1821
-19.7758
-50.229
-14.4195
72.5959
79.0339
28.8671
36.2044
37.5589
0.0961493
-95.371
4.98654
-69.9254
5.73121
105.297
141.303
102.68
137.098
36.5419
36.7486
36.9203
43.4715
154.455
135.946
149.39
137.946
63.2277
63.1026
-0.0249951
-79.2334
-19.9412
-27.591
-36.1822
71.8793
81.6242
-53.3248
-37.9586
21.7848
34.4949
39.67
0.0290729
-20.7494
-1.39492
8.24689
9.38395
0.0113779
-12.7891
0.555833
-1.44231
-6.97198
-0.0138609
-3.66931
-19.6308
-18.8998
-25.1177
-0.0230248
-0.752159
-12.6438
-20.1276
-35.0826
-0.0102167
-2.10256
30.616
-3.15509
-38.9508
0.00303083
-3.81209
-9.78353
-23.8521
-41.9662
-0.00298171
-18.4801
1.63256
14.9154
10.6464
-0.0372069
1.33023
-0.0516708
36.2333
-0.0608401
-1.75609
-0.243094
59.7967
-26.2248
7.17684
42.7214
66.0291
117.141
148.136
43.5797
81.8229
115.051
156.467
160.858
-20.4196
-1.42898
63.1022
111.142
151.983
200.94
140.704
175.18
223.134
256.072
218.721
27.5219
40.521
173.197
155.991
33.1989
59.9068
213.889
187.938
85.157
79.4371
-0.0947154
82.5436
-0.0858595
80.6936
-0.277184
107.523
-0.272325
105.463
220.07
275.525
208.228
268.534
290.665
356.778
277.362
352.803
270.869
237.426
265.067
237.912
335.382
283.855
335.664
286.094
148.578
125.24
0.0152806
28.1731
0.132359
5.49257
-0.311059
58.228
0.0842825
-8.47259
130.628
164.832
66.0353
90.8854
124.964
184.141
64.4609
107.935
177.642
185.049
106.931
118.597
207.405
222.321
139.758
157.86
-61.7103
-15.7513
159.23
224.811
90.8476
152.068
231.999
276.477
157.262
201.246
238.361
-30.7061
30.152
173.419
163.069
34.595
54.1759
231.127
203.853
79.8315
96.8546
92.2999
90.8743
0.000140194
-33.8887
-11.2575
28.8458
42.8316
0.0225535
-25.1885
6.16043
23.4094
27.8718
0.0331494
-17.7408
1.03163
6.52742
2.24349
-0.0264502
-6.1546
-9.47788
-18.7679
-36.5217
-0.0146471
-0.551022
-2.65761
-28.1128
-60.0793
0.00905216
-3.18484
-7.48362
-5.56898
-11.7217
0.00356675
-12.3958
14.2733
16.5348
12.2358
0.0209827
-61.9057
-17.3636
275.741
227.409
-54.2387
1.19237
56.4863
100.453
28.5878
58.5859
195.816
169.722
31.1773
45.7941
110.397
100.237
65.197
53.2895
-0.0574031
61.6084
-0.163183
67.2052
-0.0147009
-2.47033
-0.121627
8.21426
277.722
330.772
263.377
322.462
101.522
157.795
81.4769
144.248
301.204
243.488
299.785
244.111
161.894
136.552
155.422
133.644
170.578
108.509
169.643
114.87
96.128
58.8517
98.5756
67.5748
72.7462
-0.02203
251.687
230.197
-46.6234
18.9607
25.5521
80.9898
-70.477
-24.3882
208.459
179.385
73.076
88.3252
100.144
94.8852
20.7111
39.6743
61.4576
60.1664
0.0155581
-63.7312
-63.005
-26.2786
-42.8752
-34.2672
-49.2936
-28.7677
-30.6862
-3.28798
39.8156
57.0218
0.00528224
-1.32806
0.00812866
16.8454
-0.135854
30.4711
-0.175632
104.864
5.74424
10.114
57.5605
76.8739
42.1128
59.6487
107.264
99.5567
132.698
135.466
134.549
141.829
171.774
183.886
104.557
105.169
140.086
141.1
141.145
141.171
176.776
174.864
26.564
33.0228
86.3883
83.2089
77.0919
82.0802
142.012
133.813
84.0147
82.9071
0.0382314
18.4882
0.144316
1.66361
-0.131382
106.025
0.133272
14.0597
65.1411
87.379
-3.72413
23.6268
132.447
141.345
109.761
123.419
182.181
192.476
156.246
166.624
146.927
151.291
135.63
139.67
186.125
184.216
168.189
170.145
45.7004
76.1211
91.8704
87.6881
52.0881
60.8871
146.017
137.73
92.7998
97.0998
73.0381
60.1789
0.0619837
-16.8952
-4.66644
-2.99406
-17.2588
0.00168311
-2.45297
-10.6314
-28.6688
-55.7626
-0.00222237
-0.0468659
9.67012
9.96157
10.3652
-0.00062776
2.59836
-0.183523
-9.7859
-13.6504
-0.0342062
-2.76449
2.02643
-33.4308
-13.9012
27.3785
-13.4313
-57.1025
-97.6889
8.16338
6.27195
-2.97503
-2.07921
-34.7471
-41.2814
-103.308
-92.0864
-40.3412
-36.3935
-0.0132206
-2.26191
-15.9937
-19.6891
-26.6142
-145.281
-172.546
-152.585
-175.952
-10.182
-5.35365
-16.8342
-11.3057
-163.189
-136.034
-167.662
-143.167
-5.16998
-7.70017
-11.0173
-10.618
-110.693
-86.6307
-114.838
-89.5868
-7.51733
-7.9624
-8.56865
-8.21079
-70.0237
-72.0829
-69.6174
-70.6318
-0.0574326
-30.6741
-23.9422
2.61013
-22.8124
-41.1436
-95.7486
15.5372
-34.0594
-19.7919
-17.5015
-27.8768
-21.8167
-119.579
-115.114
-67.7019
-72.8362
-19.6971
-10.2333
-10.4648
4.60045
-97.189
-76.3783
-60.4552
-43.9111
-7.30161
-6.31422
8.53024
11.072
-61.901
-62.232
-34.5148
-33.7884
0.0145516
-9.73033
-31.269
-40.2322
-16.3022
-18.6925
-30.1061
-22.1985
1.14888
-27.4792
-13.3466
17.73
40.8966
-33.5941
-25.394
29.0352
48.2691
5.6963
21.9134
55.9925
61.9213
-10.8876
4.08979
57.4886
60.072
48.4303
0.197057
29.8342
0.409695
102.281
0.196948
22.2788
-0.141354
128.447
-6.73676
18.3622
71.7763
94.9143
19.1647
34.1815
89.2912
107.773
88.5784
145.771
170.606
191.572
218.621
162.071
190.319
199.681
232.784
214.735
23.9044
39.6925
91.1205
113.865
10.7014
36.4405
83.4172
112.014
55.0763
77.3491
121.774
141.04
61.6976
86.8825
129.834
149.546
171.947
198.767
214.927
245.767
160.003
197.801
211.259
247.11
257.265
112.509
118.591
204.794
183.642
142.911
146.83
254.239
225.197
111.935
98.8024
157.218
127.768
133.921
115.713
188.025
151.694
122.611
0.400212
103.241
0.256524
27.9719
-0.151659
125.043
0.0831056
20.8104
200.647
225.045
166.883
185.813
197.894
233.091
159.93
193.231
215.391
91.7416
115.071
28.7423
47.3597
90.6296
122.08
28.9022
55.5017
129.168
140.582
63.2968
78.3591
143.726
157.469
76.915
92.723
209.098
243.919
163.885
199.477
215.34
249.474
169.096
204.807
249.721
88.8204
125.089
23.2474
56.684
97.3
133.917
39.9773
69.8471
154.568
172.399
86.0062
104.564
160.845
182.798
95.0899
113.793
205.293
183.853
116.167
118.924
252.022
225.573
146.7
144.911
154.264
122.174
108.573
90.922
187.932
148.421
134.527
113.616
110.81
-0.0206551
-13.8454
-23.7157
-15.7443
-48.8421
-48.1423
-18.0651
-18.7189
-32.1302
10.527
39.6243
-32.7682
-3.6492
22.9909
49.8333
-22.5554
3.38356
15.0689
4.83754
0.00925501
-6.19616
-8.83896
-11.9328
-38.3532
-0.014177
2.84755
6.62349
9.42644
14.6659
-0.0264208
15.3664
-15.6847
-29.8775
-34.5936
-0.18461
-3.59486
0.0906637
-46.4121
-0.154546
-2.76059
0.0775754
-54.8622
14.3028
-22.0476
-39.3495
-66.3757
-113.026
-139.52
-48.9812
-82.9366
-129.121
-162.902
-162.136
13.0519
-15.773
-62.0979
-103.936
-156.819
-205.258
-144.698
-176.013
-222.59
-262.648
-128.849
-139.067
-226.068
-233.317
-172.142
-170.702
-255.506
-253.243
-49.6968
-58.0992
-166.262
-146.414
-38.6367
-51.853
-187.766
-156.659
-53.9952
-53.9498
-122.257
-101.996
-61.8599
-68.8245
-130.547
-113.878
-97.4691
0.319532
-104.644
0.184872
-94.6988
0.154435
-119.022
-0.0972859
-118.169
-244.429
-286.589
-225.59
-277.153
-299.307
-349.211
-252.552
-310.417
-266.691
-219.855
-269.08
-229.505
-302.741
-240.52
-297.657
-251.329
-172.965
-135.316
-183.007
-143.284
-189.358
-149.758
-200.644
-158.763
-138.011
0.586393
-60.0329
0.0138454
4.48064
0.310742
-73.0008
0.072437
1.47043
-115.507
-168.101
-4.86296
-62.41
-166.54
-197.264
-105.185
-134.247
-167.145
-201.035
-103.236
-134.749
-195.529
-13.3683
-78.3797
-192.513
-181.326
-103.887
-109.939
-211.286
-195.99
-115.146
-117.773
-151.774
-122.513
-95.3868
-77.2368
-163.081
-134.911
-104.049
-88.6653
-103.213
-105.22
-63.7387
-64.2705
-115.41
-118.758
-75.9321
-77.9689
0.0600006
-5.87078
-32.6336
-22.1552
0.510761
1.96074
-43.1429
-45.3417
-16.4566
-44.6951
-39.0694
29.5915
48.4685
-52.6345
-42.7016
19.6204
41.7544
-26.3572
-14.9442
54.464
53.6209
-29.635
-20.6323
46.3856
44.3042
-7.11089
-5.42925
53.714
56.7836
-15.1439
-14.7717
41.3201
42.9244
0.359606
15.6829
0.190246
79.7911
0.357143
1.03622
-0.175884
81.0988
13.8877
45.5319
74.0933
115.466
22.2743
44.2486
80.7766
123.629
68.6581
91.206
140.469
162.072
68.3817
95.7132
147.215
171.405
139.025
197.181
192.342
248.225
146.809
212.229
197.398
268.282
302.303
1.71482
33.3956
86.3184
135.427
-25.6002
16.9798
86.5934
139.111
62.6079
93.4257
170.883
191.611
60.2605
94.7222
175.647
193.651
171.869
258.784
239.22
336.185
247.381
327.51
344.471
422.656
300.489
305.077
375.512
367.782
333.629
326.204
414.198
390.259
160.666
159.976
289.364
248.727
164.515
155.198
284.252
253.86
338.068
304.884
282.232
247.362
331.308
294.905
237.903
214.818
275.961
247.555
222.445
202.214
258.23
233.741
140.676
118.965
199.868
158.746
129.486
109.307
176.658
144.894
103.094
104.901
131.782
133.032
93.4327
95.1014
120.254
121.907
0.154866
79.0741
0.191181
11.1543
-0.244832
83.2045
0.176996
4.6148
195.906
250.51
144.638
204.468
195.292
267.145
137.92
212.17
291.05
86.4928
134.037
36.1646
65.8649
71.3144
127.588
27.1297
58.0009
172.872
194.354
94.19
108.487
172.603
198.516
88.6875
117.492
238.656
336.575
166.444
259.84
353.974
429.166
263.042
337.886
374.437
366.562
299.645
302.428
415.567
390.597
337.577
326.998
76.8053
134.114
6.00668
39.9688
92.6122
140.341
-13.4176
22.7473
178.371
197.191
75.0189
107.776
179.11
192.152
68.9847
95.8708
290.747
249.288
162.86
159.416
339.726
309.84
296.551
278.95
336.502
302.833
296.944
276.541
280.582
254.474
255.049
242.759
265.948
243.727
244.892
230.806
146.812
147.029
201.128
156.378
146.44
121.619
179.465
143.351
135.989
115.043
119.504
-0.0238928
-34.808
-24.7127
-21.0559
-39.6877
-64.494
-66.2321
-7.26324
-63.53
17.3375
48.3896
-31.8724
-0.908989
-4.9786
38.0004
-43.7654
-2.68688
16.7259
5.05416
0.00831132
-5.85141
-22.1053
-17.9899
-43.713
0.00520469
1.52764
20.5213
18.3296
23.6906
-0.00485892
10.7157
17.4198
-12.4845
-22.3194
-0.170967
18.3532
-0.348786
-302.384
-233.3
63.9023
42.0011
-45.4481
-57.8306
-15.5153
-33.4456
-172.643
-128.539
17.2147
-20.1626
-67.0685
-74.173
-76.9884
-83.6994
0.350375
-111.534
0.0412524
-98.6657
0.0424133
-14.7315
-0.0982727
-21.3129
-297.888
-349.094
-233.842
-299.927
-238.142
-282.04
-181.239
-240.561
-338.16
-310.432
-323.021
-316.837
-279.58
-259.384
-270.669
-269.654
-208.071
-262.101
-190.842
-231.73
-167.822
-215.539
-152.744
-187.996
-244.727
-112.888
-140.735
-99.6116
-131.995
-3.25794
-34.437
-29.1953
-53.4359
-94.8718
-59.0216
-93.5691
-276.953
-249.988
-291.465
-273.031
-231.853
-212.482
-249.869
-236.655
-190.932
-236.213
-201.499
-102.261
-107.331
-111.318
-114.143
-161.046
-130.243
-167.997
-139.442
-104.783
-92.6283
-114.004
-104.182
-115.203
0.321224
-66.6038
0.0919212
0.171386
-0.208958
-13.3739
0.0654502
-3.86402
-151.08
-176.839
-92.9679
-119.015
-118.878
-139.545
-69.8976
-91.9998
-147.691
-12.4009
-53.7726
-5.18775
-43.3443
35.155
6.12004
-162.34
-155.299
-81.9328
-87.9689
-75.7097
-87.6172
-23.4054
-39.0296
-74.3066
-72.1116
0.02552
-12.4097
-35.2619
-24.3097
17.4562
34.0067
9.25908
11.4821
29.922
38.9662
16.1243
13.9739
0.307415
24.1102
100.687
442.211
336.229
-71.3493
-26.7641
9.88666
-5.46729
110.291
111.585
207.704
161.337
20.1571
48.0716
21.4598
54.2875
78.8562
72.8969
0.242282
449.229
330.813
1.92489
84.9995
14.6872
14.4995
-68.4251
-13.9352
218.211
168.618
116.017
122.679
36.0453
62.5794
35.6334
65.8751
77.0019
65.4845
0.0636982
-23.8522
17.2372
10.7546
-13.7306
0.00727606
-5.22204
-8.92254
-30.2816
-61.9338
0.00349468
1.14988
0.928995
16.6187
22.6162
-0.0180524
6.1479
-1.65884
-0.148726
0.377276
-0.0360552
13.4606
1.57185
-11.9256
-18.3852
-0.0716898
48.1104
22.791
-3.0319
-4.1495
10.4683
20.4717
22.7999
5.36876
-9.8786
-31.3516
-20.7275
-33.7407
6.55934
-8.39411
1.39398
-2.56694
-17.8137
-25.1422
-0.0343468
6.0572
0.549011
-4.01251
-10.0999
0.0126998
-10.0238
53.9852
29.7895
19.576
0.0225947
-16.6851
-1.15008
18.7455
18.7866
0.0219401
-17.3969
-7.7492
9.6674
-0.808903
0.00700631
-14.2687
48.2966
1.03903
-37.7253
-0.0237559
-4.3702
-4.78278
-35.8443
-65.045
-0.000575499
0.0326499
5.2552
8.81022
3.04318
-0.0102425
1.43575
5.59053
8.5997
3.68554
-0.00785921
2.06531
22.0636
17.1309
10.4306
-0.00985588
3.27237
16.3191
16.7623
14.4497
-0.0176047
1.71951
-0.538197
6.52217
9.11305
0.00944947
-3.39476
-6.23949
2.50264
5.88415
0.00698345
-2.62337
-25.9501
-6.34048
-11.8132
0.0137324
-3.30801
-5.99326
-14.4222
-37.1908
0.0240111
-4.12125
-7.50364
-35.0054
-60.226
-0.00289441
-5.29956
36.201
-2.12156
-37.9497
SCALARS m0 double 1
LOOKUP_TABLE table1
0
0
0
0
0
0
0
0
0
0
0
0
0
0
0
0
0
0
0
0
0
0
0
0
0
0
0
0
0
0
0
0
0
0
0
0
0
0
0
0
0
0
0
0
0
0
0
0
0
0
0
0
0
0
0
0
0
0
0
0
0
0
0
0
0
0
0
0
0
0
0
0
0
0
0
0
0
0
0
0
0
0
0
0
0
0
0
0
0
0
0
0
0
0
0
0
0
0
0
0
0
0
0
0
0
0
0
0
0
0
0
0
0
0
0
0
0
0
0
0
0
0
0
0
0
0
0
0
0
0
0
0
0
0
0
0
0
0
0
0
0
0
0
0
0
0
0
0
0
0
0
0
0
0
0
0
0
0
0
0
0
0
0
0
0
0
0
0
0
0
0
0
0
0
0
0
0
0
0
0
0
0
0
0
0
0
0
0
0
0
0
0
0
0
0
0
0
0
0
0
0
0
0
0
0
0
0
0
0
0
0
0
0
0
0
0
0
0
0
0
0
0
0
0
0
0
0
0
0
0
0
0
0
0
0
0
0
0
0
0
0
0
0
0
0
0
0
0
0
0
0
0
0
0
0
0
0
0
0
0
0
0
0
0
0
0
0
0
0
0
0
0
0
0
0
0
0
0
0
0
0
0
0
0
0
0
0
0
0
0
0
0
0
0
0
0
0
0
0
0
0
0
0
0
0
0
0
0
0
0
0
0
0
0
0
0
0
0
0
0
0
0
0
0
0
0
0
0
0
0
0
0
0
0
0
0
0
0
0
0
0
0
0
0
0
0
0
0
0
0
0
0
0
0
0
0
0
0
0
0
0
0
0
0
0
0
0
0
0
0
0
0
0
0
0
0
0
0
0
0
0
0
0
0
0
0
0
0
0
0
0
0
0
0
0
0
0
0
0
0
0
0
0
0
0
0
0
0
0
0
0
0
0
0
0
0
0
0
0
0
0
0
0
0
0
0
0
0
0
0
0
0
0
0
0
0
0
0
0
0
0
0
0
0
0
0
0
0
0
0
0
0
0
0
0
0
0
0
0
0
0
0
0
0
0
0
0
0
0
0
0
0
0
0
0
0
0
0
0
0
0
0
0
0
0
0
0
0
0
0
0
0
0
0
0
0
0
0
0
0
0
0
0
0
0
0
0
0
0
0
0
0
0
0
0
0
0
0
0
0
0
0
0
0
0
0
0
0
0
0
0
0
0
0
0
0
0
0
0
0
0
0
0
0
0
0
0
0
0
0
0
0
0
0
0
0
0
0
0
0
0
0
0
0
0
0
0
0
0
0
0
0
0
0
0
0
0
0
0
0
0
0
0
0
0
0
0
0
0
0
0
0
0
0
0
0
0
0
0
0
0
0
0
0
0
0
0
0
0
0
0
0
0
0
0
0
0
0
0
0
0
0
0
0
0
0
0
0
0
0
0
0
0
0
0
0
0
0
0
0
0
0
0
0
0
0
0
0
0
0
0
0
0
0
0
0
0
0
0
0
0
0
0
0
0
0
0
0
0
0
0
0
0
0
0
0
0
0
0
0
0
0
0
0
0
0
0
0
0
0
0
0
0
0
0
0
0
0
0
0
0
0
0
0
0
0
0
0
0
0
0
0
0
0
0
0
0
0
0
0
0
0
0
0
0
0
0
0
0
0
0
0
0
0
0
0
0
0
0
0
0
0
0
0
0
0
0
0
0
0
0
0
0
0
0
0
0
0
0
0
0
0
0
0
0
0
0
0
0
0
0
0
0
0
0
0
0
0
0
0
0
0
0
0
0
0
0
0
0
0
0
0
0
0
0
0
0
0
0
0
0
0
0
0
0
0
0
0
0
0
0
0
0
0
0
0
0
0
0
0
0
0
0
0
0
0
0
0
0
0
0
0
0
0
0
0
0
0
0
0
0
0
0
0
0
0
0
0
0
0
0
0
0
0
0
0
0
0
0
0
0
0
0
0
0
0
0
0
0
0
0
0
0
0
0
0
0
0
0
0
0
0
0
0
0
0
0
0
0
0
0
0
0
0
0
0
0
0
0
0
0
0
0
0
0
0
0
0
0
0
0
0
0
0
0
0
0
0
0
0
0
0
0
0
0
0
0
0
0
0
0
0
0
0
0
0
0
0
0
0
0
0
0
0
0
0
0
0
0
0
0
0
0
0
0
0
0
0
0
0
0
0
0
0
0
0
0
0
0
0
0
0
0
0
0
0
0
0
0
0
0
0
0
0
0
0
0
0
0
0
0
0
0
0
0
0
0
0
0
0
0
0
0
0
0
0
0
0
0
0
0
0
0
0
0
0
0
0
0
0
0
0
0
0
0
0
0
0
0
0
0
0
0
0
0
0
0
0
0
0
0
0
0
0
0
0
0
0
0
0
0
0
0
0
0
0
0
0
0
0
0
0
0
0
0
0
0
0
0
0
0
0
0
0
0
0
0
0
0
0
0
0
0
0
0
0
0
0
0
0
0
0
0
0
0
0
0
0
0
0
0
0
0
0
0
0
0
0
0
0
0
0
0
0
0
0
0
0
0
0
0
0
0
0
0
0
0
0
0
0
0
0
0
0
0
0
0
0
0
0
0
0
0
0
0
0
0
0
0
0
0
0
0
0
0
0
0
0
0
0
0
0
0
0
0
0
0
0
0
0
0
0
0
0
0
0
0
0
0
0
0
0
0
0
0
0
0
0
0
0
0
0
0
0
0
0
0
0
0
0
0
0
0
0
0
0
0
0
0
0
0
0
0
0
0
0
0
0
0
0
0
0
0
0
0
0
0
0
0
0
0
0
0
0
0
0
0
0
0
0
0
0
0
0
0
0
0
0
0
0
0
0
0
0
0
0
0
0
0
0
0
0
0
0
0
0
0
0
0
0
0
0
0
0
0
0
0
0
0
0
0
0
0
0
0
0
0
0
0
0
0
0
0
0
0
0
0
0
0
0
0
0
0
0
0
0
0
0
0
0
0
0
0
0
0
0
0
0
0
0
0
0
0
0
0
0
0
0
0
0
0
0
0
0
0
0
0
0
0
0
0
0
0
0
0
0
0
0
0
0
0
0
0
0
0
0
0
0
0
0
0
0
0
0
0
0
0
0
0
0
0
0
0
0
0
0
0
0
0
0
0
0
0
0
0
0
0
0
0
0
0
0
0
0
0
0
0
0
0
0
0
0
0
0
0
0
0
0
0
0
0
0
0
0
0
0
0
0
0
0
0
0
0
0
0
0
0
0
0
0
0
0
0
0
0
0
0
0
0
0
0
0
0
0
0
0
0
0
0
0
0
0
0
0
0
0
0
0
0
0
0
0
0
0
0
0
0
0
0
0
0
0
0
0
0
0
0
0
0
0
0
0
0
0
0
0
0
0
0
0
0
0
0
0
0
0
0
0
0
0
0
SCALARS m0s double 1
LOOKUP_TABLE table2
0
0
0
0
0
0
0
0
0
0
0
0
0
0
0
0
0
0
0
0
0
0
0
0
0
0
0
0
0
0
0
0
0
0
0
0
0
0
0
0
0
0
0
0
0
0
0
0
0
0
0
0
0
0
0
0
0
0
0
0
0
0
0
0
0
0
0
0
0
0
0
0
0
0
0
0
0
0
0
0
0
0
0
0
0
0
0
0
0
0
0
0
0
0
0
0
0
0
0
0
0
0
0
0
0
0
0
0
0
0
0
0
0
0
0
0
0
0
0
0
0
0
0
0
0
0
0
0
0
0
0
0
0
0
0
0
0
0
0
0
0
0
0
0
0
0
0
0
0
0
0
0
0
0
0
0
0
0
0
0
0
0
0
0
0
0
0
0
0
0
0
0
0
0
0
0
0
0
0
0
0
0
0
0
0
0
0
0
0
0
0
0
0
0
0
0
0
0
0
0
0
0
0
0
0
0
0
0
0
0
0
0
0
0
0
0
0
0
0
0
0
0
0
0
0
0
0
0
0
0
0
0
0
0
0
0
0
0
0
0
0
0
0
0
0
0
0
0
0
0
0
0
0
0
0
0
0
0
0
0
0
0
0
0
0
0
0
0
0
0
0
0
0
0
0
0
0
0
0
0
0
0
0
0
0
0
0
0
0
0
0
0
0
0
0
0
0
0
0
0
0
0
0
0
0
0
0
0
0
0
0
0
0
0
0
0
0
0
0
0
0
0
0
0
0
0
0
0
0
0
0
0
0
0
0
0
0
0
0
0
0
0
0
0
0
0
0
0
0
0
0
0
0
0
0
0
0
0
0
0
0
0
0
0
0
0
0
0
0
0
0
0
0
0
0
0
0
0
0
0
0
0
0
0
0
0
0
0
0
0
0
0
0
0
0
0
0
0
0
0
0
0
0
0
0
0
0
0
0
0
0
0
0
0
0
0
0
0
0
0
0
0
0
0
0
0
0
0
0
0
0
0
0
0
0
0
0
0
0
0
0
0
0
0
0
0
0
0
0
0
0
0
0
0
0
0
0
0
0
0
0
0
0
0
0
0
0
0
0
0
0
0
0
0
0
0
0
0
0
0
0
0
0
0
0
0
0
0
0
0
0
0
0
0
0
0
0
0
0
0
0
0
0
0
0
0
0
0
0
0
0
0
0
0
0
0
0
0
0
0
0
0
0
0
0
0
0
0
0
0
0
0
0
0
0
0
0
0
0
0
0
0
0
0
0
0
0
0
0
0
0
0
0
0
0
0
0
0
0
0
0
0
0
0
0
0
0
0
0
0
0
0
0
0
0
0
0
0
0
0
0
0
0
0
0
0
0
0
0
0
0
0
0
0
0
0
0
0
0
0
0
0
0
0
0
0
0
0
0
0
0
0
0
0
0
0
0
0
0
0
0
0
0
0
0
0
0
0
0
0
0
0
0
0
0
0
0
0
0
0
0
0
0
0
0
0
0
0
0
0
0
0
0
0
0
0
0
0
0
0
0
0
0
0
0
0
0
0
0
0
0
0
0
0
0
0
0
0
0
0
0
0
0
0
0
0
0
0
0
0
0
0
0
0
0
0
0
0
0
0
0
0
0
0
0
0
0
0
0
0
0
0
0
0
0
0
0
0
0
0
0
0
0
0
0
0
0
0
0
0
0
0
0
0
0
0
0
0
0
0
0
0
0
0
0
0
0
0
0
0
0
0
0
0
0
0
0
0
0
0
0
0
0
0
0
0
0
0
0
0
0
0
0
0
0
0
0
0
0
0
0
0
0
0
0
0
0
0
0
0
0
0
0
0
0
0
0
0
0
0
0
0
0
0
0
0
0
0
0
0
0
0
0
0
0
0
0
0
0
0
0
0
0
0
0
0
0
0
0
0
0
0
0
0
0
0
0
0
0
0
0
0
0
0
0
0
0
0
0
0
0
0
0
0
0
0
0
0
0
0
0
0
0
0
0
0
0
0
0
0
0
0
0
0
0
0
0
0
0
0
0
0
0
0
0
0
0
0
0
0
0
0
0
0
0
0
0
0
0
0
0
0
0
0
0
0
0
0
0
0
0
0
0
0
0
0
0
0
0
0
0
0
0
0
0
0
0
0
0
0
0
0
0
0
0
0
0
0
0
0
0
0
0
0
0
0
0
0
0
0
0
0
0
0
0
0
0
0
0
0
0
0
0
0
0
0
0
0
0
0
0
0
0
0
0
0
0
0
0
0
0
0
0
0
0
0
0
0
0
0
0
0
0
0
0
0
0
0
0
0
0
0
0
0
0
0
0
0
0
0
0
0
0
0
0
0
0
0
0
0
0
0
0
0
0
0
0
0
0
0
0
0
0
0
0
0
0
0
0
0
0
0
0
0
0
0
0
0
0
0
0
0
0
0
0
0
0
0
0
0
0
0
0
0
0
0
0
0
0
0
0
0
0
0
0
0
0
0
0
0
0
0
0
0
0
0
0
0
0
0
0
0
0
0
0
0
0
0
0
0
0
0
0
0
0
0
0
0
0
0
0
0
0
0
0
0
0
0
0
0
0
0
0
0
0
0
0
0
0
0
0
0
0
0
0
0
0
0
0
0
0
0
0
0
0
0
0
0
0
0
0
0
0
0
0
0
0
0
0
0
0
0
0
0
0
0
0
0
0
0
0
0
0
0
0
0
0
0
0
0
0
0
0
0
0
0
0
0
0
0
0
0
0
0
0
0
0
0
0
0
0
0
0
0
0
0
0
0
0
0
0
0
0
0
0
0
0
0
0
0
0
0
0
0
0
0
0
0
0
0
0
0
0
0
0
0
0
0
0
0
0
0
0
0
0
0
0
0
0
0
0
0
0
0
0
0
0
0
0
0
0
0
0
0
0
0
0
0
0
0
0
0
0
0
0
0
0
0
0
0
0
0
0
0
0
0
0
0
0
0
0
0
0
0
0
0
0
0
0
0
0
0
0
0
0
0
0
0
0
0
0
0
0
0
0
0
0
0
0
0
0
0
0
0
0
0
0
0
0
0
0
0
0
0
0
0
0
0
0
0
0
0
0
0
0
0
0
0
0
0
0
0
0
0
0
0
0
0
0
0
0
0
0
0
0
0
0
0
0
0
0
0
0
0
0
0
0
0
0
0
0
0
0
0
0
0
0
0
0
0
0
0
0
0
0
0
0
0
0
0
0
0
0
0
0
0
0
0
0
0
0
0
0
0
0
0
0
0
0
0
0
0
0
0
0
0
0
0
0
0
0
0
0
0
0
0
0
0
0
0
0
0
0
0
0
0
0
0
0
0
0
0
0
0
0
0
0
0
0
0
0
0
0
0
0
0
0
0
0
0
0
0
0
0
0
0
0
0
0
0
0
0
0
0
0
0
0
0
0
0
0
0
0
0
0
0
0
0
0
0
0

POINT_DATA	1501
SCALARS model double 1
LOOKUP_TABLE table0
0.000350502
-1.063
7.82742
-5.05237
-1.81555
0.00455115
-1.87693
2.40756
-17.9472
-16.8414
0.000711834
-1.67171
-3.70775
-17.4656
-19.9751
0.00690876
-2.31751
-7.72651
-19.1734
-26.0656
0.00144438
-2.60793
7.38193
-19.851
-39.1
0.00104205
-2.37278
7.44338
-25.286
-50.4177
0.0173411
-3.58693
16.25
-20.3193
-43.9921
0.00509236
-2.08884
17.8088
-5.27577
-22.6646
0.00351437
-0.84237
2.39852
3.91274
-0.192142
-0.00443547
0.0160847
3.68217
10.3594
8.09512
0.011652
-3.23891
8.81363
-22.1915
-43.4353
0.0124065
-6.79955
5.21672
-7.36866
-21.1938
0.00195061
-11.6025
-6.8465
-3.14526
-6.0513
0.0166893
-14.8512
-14.1945
-3.84422
-2.35358
0.0209144
-12.1886
-15.1867
-10.8354
-13.7432
0.0153971
-8.03971
-9.94347
-13.5334
-24.9464
0.00519911
-5.27673
11.7234
-9.07904
-26.3776
0.0032542
-1.79723
-1.98737
-13.6208
-26.3606
-0.0102435
0.580166
0.724585
-9.30419
-21.2689
-0.005715
-0.768243
2.76853
-1.91239
-17.7291
0.00287208
-4.92934
9.37601
-27.0245
-55.1104
0.00559623
-13.5198
5.72588