# vtk DataFile Version 3.0
Gravity inversion using rectangular prisms
ASCII
DATASET UNSTRUCTURED_GRID

POINTS	3838	double
0	0	0
0	0	200
0	0	400
0	0	600
0	0	800
0	0	1000
0	200	0
0	200	200
0	200	400
0	200	600
0	200	800
0	200	1000
0	400	0
0	400	200
0	400	400
0	400	600
0	400	800
0	400	1000
0	600	0
0	600	200
0	600	400
0	600	600
0	600	800
0	600	1000
0	800	0
0	800	200
0	800	400
0	800	600
0	800	800
0	800	1000
0	1000	0
0	1000	200
0	1000	400
0	1000	600
0	1000	800
0	1000	1000
0	1200	0
0	1200	200
0	1200	400
0	1200	600
0	1200	800
0	1200	1000
0	1400	0
0	1400	200
0	1400	400
0	1400	600
0	1400	800
0	1400	1000
0	1600	0
0	1600	200
0	1600	400
0	1600	600
0	1600	800
0	1600	1000
0	1800	0
0	1800	200
0	1800	400
0	1800	600
0	1800	800
0	1800	1000
0	2000	0
0	2000	200
0	2000	400
0	2000	600
0	2000	800
0	2000	1000
200	0	0
200	0	200
200	0	400
200	0	600
200	0	800
200	0	1000
200	200	0
200	200	200
200	200	400
200	200	600
200	200	800
200	200	1000
200	400	0
200	400	200
200	400	400
200	400	600
200	400	800
200	400	1000
200	600	0
200	600	200
200	600	300
200	600	400
200	600	600
200	600	800
200	600	1000
200	700	200
200	700	300
200	700	400
200	800	0
200	800	200
200	800	300
200	800	400
200	800	600
200	800	800
200	800	1000
200	1000	0
200	1000	200
200	1000	400
200	1000	600
200	1000	800
200	1000	1000
200	1200	0
200	1200	200
200	1200	400
200	1200	600
200	1200	800
200	1200	1000
200	1400	0
200	1400	200
200	1400	400
200	1400	600
200	1400	800
200	1400	1000
200	1600	0
200	1600	200
200	1600	400
200	1600	600
200	1600	800
200	1600	1000
200	1800	0
200	1800	200
200	1800	400
200	1800	600
200	1800	800
200	1800	1000
200	2000	0
200	2000	200
200	2000	400
200	2000	600
200	2000	800
200	2000	1000
300	600	200
300	600	300
300	600	400
300	700	200
300	700	300
300	700	400
300	800	200
300	800	300
300	800	400
400	0	0
400	0	200
400	0	400
400	0	600
400	0	800
400	0	1000
400	200	0
400	200	200
400	200	400
400	200	600
400	200	800
400	200	1000
400	400	0
400	400	200
400	400	300
400	400	400
400	400	500
400	400	600
400	400	800
400	400	1000
400	500	200
400	500	300
400	500	400
400	500	500
400	500	600
400	600	0
400	600	100
400	600	200
400	600	250
400	600	300
400	600	400
400	600	500
400	600	600
400	600	700
400	600	800
400	600	900
400	600	1000
400	650	200
400	650	250
400	650	300
400	700	0
400	700	100
400	700	200
400	700	250
400	700	300
400	700	400
400	700	500
400	700	600
400	700	700
400	700	800
400	700	900
400	700	1000
400	800	0
400	800	100
400	800	200
400	800	300
400	800	400
400	800	500
400	800	600
400	800	700
400	800	800
400	800	900
400	800	1000
400	900	200
400	900	300
400	900	400
400	900	500
400	900	600
400	900	700
400	900	800
400	1000	0
400	1000	200
400	1000	300
400	1000	400
400	1000	500
400	1000	600
400	1000	700
400	1000	800
400	1000	1000
400	1200	0
400	1200	200
400	1200	400
400	1200	600
400	1200	800
400	1200	1000
400	1400	0
400	1400	200
400	1400	400
400	1400	600
400	1400	800
400	1400	1000
400	1600	0
400	1600	200
400	1600	400
400	1600	600
400	1600	800
400	1600	1000
400	1800	0
400	1800	200
400	1800	400
400	1800	600
400	1800	800
400	1800	1000
400	2000	0
400	2000	200
400	2000	400
400	2000	600
400	2000	800
400	2000	1000
450	600	200
450	600	250
450	600	300
450	650	200
450	650	250
450	650	300
450	700	200
450	700	250
450	700	300
500	400	200
500	400	300
500	400	400
500	400	500
500	400	600
500	500	200
500	500	300
500	500	400
500	500	500
500	500	600
500	600	0
500	600	100
500	600	200
500	600	250
500	600	300
500	600	400
500	600	450
500	600	500
500	600	600
500	600	700
500	600	800
500	600	900
500	600	1000
500	650	200
500	650	250
500	650	300
500	650	400
500	650	450
500	650	500
500	700	0
500	700	100
500	700	200
500	700	250
500	700	300
500	700	400
500	700	450
500	700	500
500	700	600
500	700	700
500	700	800
500	700	900
500	700	1000
500	750	200
500	750	250
500	750	300
500	800	0
500	800	100
500	800	200
500	800	250
500	800	300
500	800	400
500	800	500
500	800	600
500	800	700
500	800	800
500	800	900
500	800	1000
500	900	200
500	900	300
500	900	400
500	900	500
500	900	600
500	900	700
500	900	800
500	1000	200
500	1000	300
500	1000	400
500	1000	500
500	1000	600
500	1000	700
500	1000	800
550	600	200
550	600	250
550	600	300
550	600	400
550	600	450
550	600	500
550	650	200
550	650	250
550	650	300
550	650	400
550	650	450
550	650	500
550	700	200
550	700	250
550	700	300
550	700	400
550	700	450
550	700	500
550	750	200
550	750	250
550	750	300
550	800	200
550	800	250
550	800	300
600	0	0
600	0	200
600	0	400
600	0	600
600	0	800
600	0	1000
600	200	0
600	200	200
600	200	400
600	200	600
600	200	800
600	200	1000
600	400	0
600	400	100
600	400	200
600	400	300
600	400	400
600	400	500
600	400	600
600	400	700
600	400	800
600	400	900
600	400	1000
600	500	0
600	500	100
600	500	200
600	500	250
600	500	300
600	500	400
600	500	450
600	500	500
600	500	550
600	500	600
600	500	700
600	500	800
600	500	900
600	500	1000
600	550	200
600	550	250
600	550	300
600	550	400
600	550	450
600	550	500
600	550	550
600	550	600
600	600	0
600	600	100
600	600	200
600	600	250
600	600	300
600	600	400
600	600	450
600	600	500
600	600	550
600	600	600
600	600	700
600	600	800
600	600	900
600	600	1000
600	650	200
600	650	250
600	650	300
600	650	400
600	650	450
600	650	500
600	700	0
600	700	100
600	700	200
600	700	250
600	700	300
600	700	400
600	700	450
600	700	500
600	700	600
600	700	700
600	700	800
600	700	900
600	700	1000
600	750	200
600	750	250
600	750	300
600	800	0
600	800	100
600	800	200
600	800	250
600	800	300
600	800	350
600	800	400
600	800	500
600	800	600
600	800	700
600	800	800
600	800	900
600	800	1000
600	850	200
600	850	250
600	850	300
600	850	350
600	850	400
600	900	0
600	900	100
600	900	200
600	900	250
600	900	300
600	900	350
600	900	400
600	900	500
600	900	600
600	900	700
600	900	800
600	1000	0
600	1000	100
600	1000	200
600	1000	300
600	1000	400
600	1000	500
600	1000	600
600	1000	700
600	1000	800
600	1000	1000
600	1100	400
600	1100	500
600	1100	600
600	1100	700
600	1100	800
600	1200	0
600	1200	200
600	1200	400
600	1200	500
600	1200	600
600	1200	700
600	1200	800
600	1200	900
600	1200	1000
600	1300	600
600	1300	700
600	1300	800
600	1300	900
600	1300	1000
600	1400	0
600	1400	200
600	1400	400
600	1400	500
600	1400	600
600	1400	700
600	1400	800
600	1400	900
600	1400	1000
600	1500	400
600	1500	500
600	1500	600
600	1600	0
600	1600	200
600	1600	400
600	1600	500
600	1600	600
600	1600	800
600	1600	1000
600	1800	0
600	1800	200
600	1800	400
600	1800	600
600	1800	800
600	1800	1000
600	2000	0
600	2000	200
600	2000	400
600	2000	600
600	2000	800
600	2000	1000
650	500	200
650	500	250
650	500	300
650	500	400
650	500	450
650	500	500
650	500	550
650	500	600
650	550	200
650	550	250
650	550	300
650	550	400
650	550	450
650	550	500
650	550	550
650	550	600
650	600	200
650	600	250
650	600	300
650	600	400
650	600	450
650	600	500
650	600	550
650	600	600
650	800	200
650	800	250
650	800	300
650	800	350
650	800	400
650	850	200
650	850	250
650	850	300
650	850	350
650	850	400
650	900	200
650	900	250
650	900	300
650	900	350
650	900	400
700	400	0
700	400	100
700	400	200
700	400	300
700	400	400
700	400	500
700	400	600
700	400	700
700	400	800
700	400	900
700	400	1000
700	500	0
700	500	100
700	500	200
700	500	250
700	500	300
700	500	350
700	500	400
700	500	450
700	500	500
700	500	550
700	500	600
700	500	700
700	500	800
700	500	900
700	500	1000
700	550	200
700	550	250
700	550	300
700	550	350
700	550	400
700	550	450
700	550	500
700	550	550
700	550	600
700	600	0
700	600	100
700	600	200
700	600	250
700	600	300
700	600	350
700	600	400
700	600	450
700	600	500
700	600	550
700	600	600
700	600	700
700	600	800
700	600	900
700	600	1000
700	700	0
700	700	100
700	700	200
700	700	300
700	700	400
700	700	500
700	700	600
700	700	700
700	700	800
700	700	900
700	700	1000
700	800	0
700	800	100
700	800	200
700	800	250
700	800	300
700	800	350
700	800	400
700	800	500
700	800	600
700	800	700
700	800	800
700	800	900
700	800	1000
700	850	200
700	850	250
700	850	300
700	850	350
700	850	400
700	900	0
700	900	100
700	900	200
700	900	250
700	900	300
700	900	350
700	900	400
700	900	500
700	900	600
700	900	700
700	900	800
700	1000	0
700	1000	100
700	1000	200
700	1000	300
700	1000	400
700	1000	500
700	1000	600
700	1000	700
700	1000	800
700	1100	400
700	1100	500
700	1100	600
700	1100	700
700	1100	800
700	1200	400
700	1200	500
700	1200	600
700	1200	700
700	1200	800
700	1200	900
700	1200	1000
700	1300	600
700	1300	700
700	1300	800
700	1300	900
700	1300	1000
700	1400	400
700	1400	500
700	1400	600
700	1400	700
700	1400	800
700	1400	900
700	1400	1000
700	1500	400
700	1500	500
700	1500	600
700	1600	400
700	1600	500
700	1600	600
750	500	200
750	500	250
750	500	300
750	500	350
750	500	400
750	550	200
750	550	250
750	550	300
750	550	350
750	550	400
750	600	200
750	600	250
750	600	300
750	600	350
750	600	400
750	800	200
750	800	250
750	800	300
750	800	350
750	800	400
750	850	200
750	850	250
750	850	300
750	850	350
750	850	400
750	900	200
750	900	250
750	900	300
750	900	350
750	900	400
800	0	0
800	0	200
800	0	400
800	0	600
800	0	800
800	0	1000
800	200	0
800	200	200
800	200	300
800	200	400
800	200	600
800	200	800
800	200	1000
800	300	200
800	300	300
800	300	400
800	400	0
800	400	100
800	400	200
800	400	250
800	400	300
800	400	400
800	400	500
800	400	600
800	400	700
800	400	800
800	400	900
800	400	1000
800	450	200
800	450	250
800	450	300
800	500	0
800	500	100
800	500	200
800	500	250
800	500	300
800	500	350
800	500	400
800	500	500
800	500	600
800	500	700
800	500	800
800	500	900
800	500	1000
800	550	200
800	550	250
800	550	300
800	550	350
800	550	400
800	600	0
800	600	100
800	600	150
800	600	200
800	600	250
800	600	300
800	600	350
800	600	400
800	600	500
800	600	600
800	600	700
800	600	800
800	600	900
800	600	1000
800	650	100
800	650	150
800	650	200
800	650	250
800	650	300
800	700	0
800	700	100
800	700	150
800	700	200
800	700	250
800	700	300
800	700	400
800	700	500
800	700	600
800	700	700
800	700	800
800	700	900
800	700	1000
800	750	100
800	750	150
800	750	200
800	750	250
800	750	300
800	800	0
800	800	100
800	800	150
800	800	200
800	800	250
800	800	300
800	800	350
800	800	400
800	800	500
800	800	600
800	800	700
800	800	800
800	800	900
[...]
CELL_DATA	2586
SCALARS model double 1
LOOKUP_TABLE table0
0.000349695
-1.12976
13.9055
-12.5678
-37.4383
0.00308939
-1.21291
7.85217
-5.27944
-22.4614
-0.00608555
0.474072
-0.908627
-6.75122
-15.4679
-0.00146378
1.27726
-14.8911
-13.1349
-15.7757
-0.00752342
0.984796
-3.311
-6.82934
-9.69139
-0.00285631
0.571117
3.53075
-1.38272
-6.35216
0.0111627
1.11131
6.1286
-3.0552
-12.2235
-8.8771e-05
1.02257
20.238
3.65959
-14.2628
0.00272275
-0.478412
10.4758
-3.69396
-26.2549
-0.00544285
-1.27475
25.4373
1.98338
-34.6193
0.00742477
-1.27321
3.1393
-8.35085
-23.4028
0.00771633
-1.9401
-7.58386
-11.1971
-19.0803
0.0018007
-5.34671
-12.2464
-14.0945
-14.2166
0.013238
-6.40849
-9.0975
-7.57187
-8.88065
-15.2516
-14.471
-10.039
-11.9018
-17.9312
-13.8
-9.00126
0.0148298
-6.17704
-18.4272
-19.0162
-14.1162
0.00798518
-0.0852575
-19.0308
-23.3069
-21.1053
-0.00118014
4.10799
-30.1375
-30.1195
-28.787
-0.00302611
5.09504
-26.2174
-27.7012
-29.8689
-0.0137806
3.3419
-9.17743
-15.3822
-25.0517
-0.0116979
0.622813
-3.41794
-19.0641
-38.5672
-0.00108568
-2.46768
5.82621
-4.69892
-12.7044
-0.00854662
-6.63038
-9.34201
-9.10342
-10.5332
0.106348
-19.4571
-21.0852
-30.2124
-17.9872
-27.8688
-8.82239
72.4233
73.476
-3.84464
-2.71211
-3.34249
1.19324
2.92079
7.18277
53.9633
42.0656
9.63216
14.049
0.166015
-5.25954
0.147684
-4.18888
0.0888074
19.9519
0.00731372
22.7448
-14.2349
-15.7078
-17.8252
-17.821
6.69753
8.75325
-2.05931
5.60294
-1.01896
-22.5068
0.00357656
48.395
67.1763
30.1952
56.3719
88.1448
113.499
80.8591
112.195
113.582
24.0603
58.8786
44.8771
74.0228
83.843
116.2
98.1633
123.868
121.183
18.0911
28.786
22.3758
34.804
70.698
69.0659
100.736
99.1897
128.626
127.008
144.432
143.448
97.2174
127.65
114.029
33.9676
28.8866
34.5572
29.767
87.7688
65.9412
90.6164
70.1597
27.6539
25.4619
31.9154
32.0892
63.7513
67.3356
69.1909
73.9915
0.0115354
-49.2704
-21.9747
-21.1888
-23.8075
77.8219
78.2521
-31.8991
-25.878
-2.31643
13.4357
-20.1859
-10.4449
76.3206
72.8492
-0.201083
20.5544
12.6867
13.9619
-0.820628
1.83316
55.8342
46.8815
23.4278
26.4047
19.1163
0.0373696
-14.3761
-17.8058
-16.5159
-9.49744
0.0149314
-6.30268
-13.8218
-21.2193
-18.6822
-0.0127934
0.392378
-24.413
-29.2381
-27.9536
-0.0189293
-0.445811
0.792132
-10.7817
-16.3826
-0.0133967
-1.0534
23.6718
4.17301
-9.54072
-0.000203655
-1.39479
-7.31476
-12.6158
-13.5368
-0.0194157
-13.0596
-6.14243
-0.991178
1.32832
0.0202206
1.05249
0.0209373
68.0118
0.0718803
4.19805
0.225546
64.2658
-2.89241
28.7266
69.2022
82.83
122.946
139.891
77.4071
95.4422
128.794
152.384
140.194
22.5412
57.6855
78.2403
96.7099
133.458
161.293
73.2113
89.8841
132.245
160.832
118.233
142.922
175.673
201.586
114.68
149.335
177.775
203.693
53.2877
59.121
90.6917
86.8071
141.688
139.405
135.142
134.715
174.321
175.146
86.2109
79.7015
129.519
122.547
131.248
124.784
161.049
152.31
84.8083
93.2501
195.007
175.392
64.3584
54.4409
103.789
83.5206
80.4628
65.9969
145.17
106.787
48.1325
43.5108
77.3079
78.6237
57.0419
55.073
90.7747
92.4985
0.250049
95.6379
0.210282
95.4971
0.0816483
145.69
0.0660852
137.023
204.074
242.284
210.835
252.566
255.199
299.56
257.915
308.804
241.337
198.602
240.532
200.665
291.231
243.994
292.15
241.25
149.999
123.989
150.426
122.367
182.117
141.73
184.331
143.469
94.7141
97.0425
103.898
108.519
112.042
113.113
122.513
126.151
0.203518
42.8735
0.23552
3.61294
0.0112427
64.3221
0.15352
-1.04202
132.532
169.459
83.4491
105.854
154.449
195.028
95.7673
127.384
177.847
177.391
113.864
118.034
214.875
216.481
145.035
152.807
-42.3166
-12.8762
165.463
215.011
108.625
145.648
166.006
213.342
111.296
145.78
233.324
251.337
170.417
179.63
233.542
250.787
171.87
184.188
0.877487
29.9159
150.793
138.169
33.6708
59.2515
195.329
171.328
57.5035
74.9194
118.165
93.047
60.6067
57.5079
157.168
123.497
81.7449
77.6976
94.2106
0.0260468
-34.0261
-21.4737
-2.51423
-14.6372
-9.58074
-20.3998
10.4927
-22.2313
-2.77701
19.9788
33.6068
8.41037
18.3181
34.3715
51.7707
19.8722
36.8083
40.5142
0.0512155
-33.738
9.969
14.8431
17.1691
13.2017
14.0139
39.1018
49.4593
37.6951
45.2749
20.3559
22.3043
16.1136
16.6659
59.5905
67.318
52.4813
58.6968
0.0547844
-22.6376
-22.3679
-20.6276
-19.9447
-22.6185
-13.5213
-8.51749
-20.0298
-18.1707
-9.01056
1.46192
-0.0254187
-5.29089
-16.8763
-27.3341
-27.01
-0.0196548
0.757278
-7.90949
-21.9943
-23.6551
-0.000403339
-0.318019
-12.2746
-11.7674
-11.9738
-0.00108586
-7.77267
-9.0058
-16.3143
-9.7233
-4.98994
-9.02053
-10.9366
-9.50824
-6.23292
-1.61515
-0.417149
0.100439
-1.55232
0.193692
64.7878
-0.12777
4.32156
-0.149281
12.3981
4.58922
7.34306
22.5199
32.5164
3.78497
2.4029
8.97189
19.6662
46.1698
63.3064
83.5211
129.531
152.194
49.7964
65.8733
110.472
128.571
103.003
137.166
164.747
185.863
92.5218
127.763
137.062
159.57
-22.1489
15.726
16.4129
45.7053
66.3995
82.9229
-1.29782
23.2648
34.7824
56.3255
94.6324
76.2738
82.585
176.754
157.963
36.1039
38.9115
111.522
88.5754
67.9968
54.7721
129.714
92.7225
30.3056
21.0059
62.4548
41.7272
48.0493
47.7217
77.8168
79.2899
16.3382
14.8749
34.793
36.322
0.399256
83.298
149.532
86.7224
161.304
55.499
107.007
55.11
120.471
0.288581
84.6947
163.417
82.6295
145.844
63.8139
126.949
64.3724
119.32
-0.0892294
23.8974
-0.159934
28.8103
191.61
229.509
216.486
258.227
147.263
184.971
168.449
208.649
253.653
223.392
264.423
203.533
242.728
176.491
216.592
161.546
199.931
268.35
95.0281
128.03
102.137
141.59
43.6648
78.3484
42.4852
81.9888
153.571
173.649
171.98
193.778
95.483
105.387
106.008
120.273
102.146
138.572
91.3844
121.907
42.8526
77.318
43.6976
74.6109
173.244
197.721
160.37
184.907
107.666
124.113
109.103
120.488
256.011
214.754
257.19
211.542
176.263
173.536
193.511
189.146
106.746
108.126
121.641
121.726
119.747
195.067
190.04
178.68
175.542
124.756
124.362
116.285
117.404
116.994
158.185
121.105
162.823
126.868
88.1807
66.902
88.0933
69.4338
101.011
102.762
111.829
116.357
45.6875
45.2994
58.0811
59.8231
0.0644394
37.8438
0.0945206
-1.78327
-0.0306703
3.6579
0.0314335
0.563359
146.875
188.612
97.0644
127.058
102.958
145.677
82.0527
91.4102
215.902
229.905
149.248
168.05
177.269
200.856
126.944
143.233
28.4363
49.4995
-9.30514
-3.83665
20.8926
34.2655
-14.1576
-5.91307
67.7321
76.8272
8.77948
19.7317
55.9746
69.2787
7.97231
21.3697
65.8638
101.765
25.787
50.0633
40.3663
60.5178
17.7901
30.3818
87.6247
-31.2466
-7.68632
171.971
151.946
55.3199
70.2859
88.9334
78.5053
11.9828
32.4203
143.434
116.006
86.845
84.9654
68.5649
59.7749
41.8078
51.2745
81.3709
0.0793239
-68.8346
-69.3385
-62.408
-64.2173
-75.1942
-73.3394
-76.5292
-57.3367
-29.6018
8.32322
-24.0796
15.1044
-36.2116
8.38976
0.921352
50.2799
59.2861
86.651
0.125481
-5.47662
0.19268
6.64237
0.173126
3.02411
0.240979
75.155
-32.9989
-8.44849
4.61379
55.7283
48.1995
21.3035
11.6301
67.2678
80.0306
43.9629
54.1743
117.026
136.514
71.8063
92.9664
117.51
144.445
153.082
181.434
199.127
239.332
119.182
138.828
167.16
178.599
203.33
217.962
258.451
262.809
33.1025
68.732
93.9932
107.564
34.9099
57.7387
99.9199
114.608
73.7275
94.2413
144.548
154.33
133.968
150.825
156.281
185.15
181.207
211.877
210.61
245.216
238.98
160.093
161.697
180.531
175.147
204.201
199.235
223.764
215.819
76.0976
81.8186
98.2583
94.9386
147.168
135.197
172.969
151.361
86.4161
94.8143
91.2228
97.7885
132.906
142.634
140.266
149.049
0.219381
9.81402
0.277187
0.109447
0.293085
78.9614
0.457438
-5.87056
19.7996
72.9931
-43.4624
6.15986
121.77
152.941
91.6527
119.266
203.857
246.2
168.473
204.423
175.769
180.432
145.273
149.189
262.832
261.352
218.991
220.134
26.8519
76.9116
94.0624
8.7752
32.0868
123.108
147.316
46.5328
68.5054
53.6818
53.9474
45.1138
44.4039
114.92
114.221
89.6705
90.9758
90.2072
42.6241
45.2141
180.938
176.944
148.863
151.732
251.24
238.77
215.415
207.007
175.324
170.491
155.936
153.379
223.478
214.241
204.633
201.806
104.556
108.858
58.9988
67.8912
156.547
157.205
87.7515
96.033
103.324
82.4753
76.1729
54.01
49.3053
151.498
124.676
80.7363
72.1256
77.0306
79.9122
45.8045
42.1111
119.181
126.55
70.4078
73.3339
0.0717377
-26.5922
-24.8899
-14.9949
-22.2686
-40.8265
-30.0765
-24.4648
-29.4201
-27.2683
-24.0839
-31.9926
-31.7747
-26.8363
-17.5891
-36.4323
-33.9379
-14.7496
-7.63593
-28.1813
-27.0827
-7.22309
3.09244
-27.5923
-23.2902
0.883267
1.72289
-22.6449
-28.3307
12.333
15.533
-14.0164
-17.3701
-0.0210907
3.1748
-39.5351
-46.3531
-33.3576
0.00125686
-0.205461
14.6215
8.19881
0.36354
0.00360736
5.10936
5.0875
-4.34535
-11.5027
-0.0534599
4.04598
4.06238
-4.51156
4.71746
26.6683
-18.4969
-63.3855
-90.1425
3.66473
-7.99653
2.16987
-12.184
-52.4586
-68.0971
-105.099
-107.352
-17.0748
-17.0081
-16.8258
-17.6351
-68.0063
-56.2781
-114.141
-93.7561
-14.9854
-11.7225
-12.4758
-10.2396
-55.9699
-55.8338
-78.4717
-77.2623
0.0334724
0.718949
0.000889761
-2.30423
0.0460851
-31.123
-0.0697663
-16.4302
0.997578
32.5379
37.5975
34.5855
42.2991
-21.1747
-25.1255
-22.1169
-23.9613
-20.0785
28.8695
42.5726
19.6683
33.7939
-26.6027
-23.1633
-27.5966
-23.8835
-35.849
-70.6924
-52.3357
-86.2512
-94.6207
-130.087
-105.219
-141.324
-138.404
-52.2511
-90.5709
-43.9175
-82.256
-100.26
-140.636
-88.7638
-128.873
-147.743
40.8168
39.3049
46.4751
44.0294
-24.5823
-22.7372
-21.7594
-20.77
-9.42756
48.4059
45.0527
40.8878
38.112
-19.2787
-19.8634
-19.0922
-20.4533
-12.3666
-154.624
-138.784
-163.495
-146.408
-20.8102
-21.3447
-18.0331
-14.134
-119.966
-101.562
-123.474
-101.025
-16.6894
-14.0754
-7.45798
-4.40892
-83.8312
-83.8386
-80.2335
-79.5416
-0.00784201
-29.6648
-24.7876
-3.87557
-30.2107
-67.6331
-113.175
8.90761
-53.6237
-25.4149
-24.5153
-38.4612
-23.6467
-132.57
-126.457
-85.2955
-79.3624
-14.5394
-5.05916
-0.949839
17.907
-103.843
-78.364
-54.8837
-29.9435
7.26035
13.0305
37.1193
46.7779
-56.0852
-52.6409
-10.619
-4.66535
0.186882
-1.5111
0.170325
-20.3461
0.111976
-2.65498
0.0453309
-9.10434
-39.8972
-55.8142
-47.8158
-50.4822
-25.1618
-18.5376
-23.5961
-26.8145
-6.35284
0.658199
-29.3618
-23.3624
-45.4037
-74.432
-11.6701
-36.8163
3.87548
-24.0547
14.9962
32.2913
64.6208
-5.88439
28.9554
51.823
81.3455
83.4775
-37.5548
-7.8688
-2.29397
34.2481
64.0053
92.2414
5.95484
36.7163
67.7042
93.8609
55.8856
71.7687
105.668
118.636
56.0423
71.5091
105.499
117.676
21.1718
45.273
116.803
125.242
-0.772687
22.7582
120.63
123.112
58.6064
68.2872
125.913
136.286
36.6262
44.4537
118.847
126.144
0.623768
-7.11041
1.37326
33.6648
0.556499
-4.87803
0.675871
82.144
-3.64357
42.4893
92.7471
147.345
14.6132
61.0049
103.065
165.294
62.7633
76.1918
159.364
186.859
87.471
104.437
195.606
217.7
170.601
241.008
226.579
302.762
184.85
268.308
248.65
332.57
266.05
287.759
325.959
337.304
306.565
328.731
364.544
378.81
8.16656
56.864
104.908
162.63
3.52751
50.4469
90.0429
146.872
95.1072
118.476
194.786
224.125
92.522
120.574
187.663
216.346
188.098
264.566
247.353
323.291
158.783
234.343
209.094
282.896
367.319
110.089
133.814
184.494
196.172
137.637
158.739
209.411
220.182
196.245
338.538
292.168
155.033
176.631
230.672
242.922
153.76
176.712
230.854
246.815
231.834
384.859
343.893
187.291
158.395
253.139
195.61
220.404
184.147
300.467
236.845
147.703
158.533
169.274
175.982
160.711
167.723
195.6
197.937
1.42012
33.6728
0.674615
-0.484672
0.730191
78.1837
0.531437
-5.50932
231.512
308.781
186.773
260.061
250.138
336.088
194.931
282.429
331.785
328.627
275.523
280.008
361.292
369.313
307.77
319.271
106.698
152.366
1.85627
43.4625
118.628
176.12
22.5383
69.3463
183.742
199.978
90.7336
109.048
217.568
232.267
109.629
130.954
246.96
324.976
192.086
271.9
209.472
283.907
160.404
241.23
354.728
116.086
180.802
30.3384
80.2602
98.4013
166.699
32.1686
82.6736
218.078
252.294
124.401
149.676
218.057
261.132
129.523
157.786
316.135
297.034
270.231
257.424
354.199
338.869
311.269
303.007
279.239
254.055
250.087
228.726
308.397
283.829
283.173
254.197
205.551
200.072
131.305
130.359
240.371
235.209
158.84
159.651
188.198
177.827
129.496
121.215
221.834
206.012
159.342
149.436
364.814
320.477
259.593
267.522
157.126
162.822
268.521
281.542
166.11
173.661
255.186
238.038
173.122
168.793
271.334
249.934
183.547
178.168
230.905
212.767
205.5
189.905
252.57
234.447
220.447
207.35
167.866
123.683
110.403
264.171
208.899
165.919
137.434
150.187
154.149
99.9326
101.018
175.334
175.407
118.258
117.744
0.0298074
-11.9809
0.0176048
-0.328386
-0.0681312
-1.61426
-0.0358221
-0.0365409
-8.21904
-7.00155
-32.1922
-48.8071
-4.68168
-2.45964
-28.0181
-45.0959
-1.90628
5.50378
-59.822
-49.7452
0.229359
3.94992
-59.2292
-50.3508
-17.2486
-60.2365
-85.6477
-58.5902
-23.5467
-60.2971
-20.1214
4.55761
-65.9786
-43.0174
28.03
50.9138
-55.2336
-22.5769
37.5341
59.6385
-45.1808
-13.0869
18.6547
-65.0844
-43.3198
22.4359
29.6781
-27.5929
-10.6761
36.0241
41.8326
-22.2752
-4.82328
33.0144
33.3817
-1.59384
-4.66258
44.4601
44.9616
3.32164
0.196846
-0.0178287
-1.7268
-22.0823
-32.9318
-19.2989
-0.00652242
0.8186
16.424
17.4512
9.17472
-0.0220053
17.8138
-2.05144
-6.17844
-8.42329
-20.0422
2.78138
-1.69943
-7.58148
-17.1976
-5.37573
-13.1399
-0.241884
1.91377
-0.0849942
-67.1964
-0.247446
-4.75268
-0.350626
-71.1346
-1.0522
-40.4508
-64.773
-79.0078
-121.601
-140.144
-76.8125
-97.1996
-135.388
-158.015
-153.705
-16.8227
-49.7963
-78.8282
-103.996
-142.045
-168.989
-79.3488
-101.433
-140.518
-165.939
-168.299
-77.7133
-98.2832
-169.728
-166.838
-81.2366
-103.938
-185.273
-180.839
-96.6436
-83.5317
-150.572
-128.361
-101.98
-86.5647
-159.807
-133.415
-71.4361
-72.906
-114.434
-114.298
-77.7581
-76.8499
-121.227
-118.75
-0.474381
-61.9304
-127.541
-68.7271
-124.185
-83.3276
-155.44
-98.2679
-162.842
-0.313581
-105.678
-0.457775
-146.071
-0.460362
-139.879
-216.877
-251.147
-206.966
-254.55
-254.302
-278.476
-244.751
-281.056
-246.641
-221.532
-253.443
-228.593
-268.332
-241.347
-276.747
-249.94
-191.706
-162.118
-197.232
-163.155
-209.796
-179.641
-217.742
-184.331
-127.102
-125.567
-127.329
-125.171
-149.116
-148.996
-153.532
-154.159
0.257523
-59.4832
-0.0845587
8.69661
-0.0867426
-71.7313
-0.0389958
1.17825
-126.719
-173.418
-23.8318
-83.2032
-157.94
-198.409
-103.978
-140.57
-157.939
-195.382
-103.798
-137.629
-194.325
-25.6013
-85.1765
-193.341
-188.632
-119.575
-120.919
-211.762
-203.33
-124.3
-132.726
-163.798
-132.124
-96.6003
-69.2219
-185.014
-152.941
-114.906
-89.4011
-102.43
-100.555
-46.958
-43.3763
-125.432
-125.466
-68.9755
-67.6018
0.0264787
-29.5426
-48.1051
-60.3759
0.367039
-5.69773
-32.4195
-34.6275
7.82003
-44.6398
-28.003
58.4406
82.3691
-44.8367
-41.9204
43.5257
55.7817
-9.61078
7.05936
94.3368
97.5952
-29.0916
-16.2832
61.616
64.5278
18.4908
23.527
97.5079
104.82
-5.27112
-2.57391
66.7979
72.1072
0.780725
2.09133
1.05951
67.9332
0.552119
22.4505
0.678061
120.031
9.39346
42.3192
75.8932
120.717
-10.7107
15.572
61.7505
106.478
79.7681
111.226
167.294
200.92
52.7329
87.3063
147.423
175.373
134.524
201.868
169.477
241.352
122.349
171.746
157.413
217.832
262.62
295.972
302.418
343.329
214.266
250.966
260.358
297.13
8.23832
29.1139
66.9546
89.9756
7.96084
22.9091
67.6565
86.6589
61.7281
87.4649
116.038
139.779
52.6868
74.8765
106.765
118.198
137.34
164.778
187.361
213.133
138.115
151.535
165.859
186.343
193.254
220.258
236.444
260.577
167.959
191.092
203.564
222.808
142.973
164.397
213.811
230.821
114.704
141.022
194.295
211.052
218.617
340.815
323.351
104.278
122.718
162.535
181.183
88.4881
105.608
133.716
153.017
173.774
250.879
256.838
202.785
175.796
275.44
222.715
157.77
136.939
215.369
176.164
152.978
156.248
192.569
195.435
113.613
115.386
149.764
151.692
1.07928
69.4584
0.70074
-2.83668
0.786981
108.876
0.54332
24.1453
173.596
241.783
141.21
209.576
162.435
223.53
128.805
187.436
290.978
81.8812
145.56
30.6909
78.094
76.6899
129.481
14.8446
58.6696
199.034
245.775
128.144
159.512
185.551
226.636
106.709
140.928
182.415
212.689
138.36
173.906
163.568
187.828
140.305
161.453
241.444
269.861
209.238
241.601
203.673
219.037
179.069
189.734
77.3945
115.857
30.1487
57.8371
78.2297
105.003
35.0929
53.9163
151.9
186.462
86.6014
114.367
130.218
154.308
72.0982
85.5697
330.217
310.322
257.705
271.226
167.371
172.471
236.26
244.385
153.787
161.204
266.837
247.954
182.838
175.688
243.288
233.559
171.398
170.47
288.616
283.435
261.461
262.121
244.203
235.882
219.46
226.792
248.047
211.332
217.139
134.756
146.43
170.328
180.009
111.529
126.639
157.045
253.912
206.569
218.362
196.97
156.913
147.479
208.494
191.804
156.569
149.225
135.569
204.252
167.372
130.136
113.906
182.499
182.39
115.932
116.985
144.396
144.766
93.3778
94.1541
-0.0382023
-69.8829
-46.0708
-19.6114
-50.147
-47.302
-41.3599
-10.4502
-46.5698
40.6935
61.6651
-36.2274
-5.38586
37.5318
55.5344
-28.8669
-3.44023
19.947
-59.4624
-42.8813
-7.1371
12.6806
-54.888
-39.2884
21.7588
32.3696
-13.2778
-6.28164
18.0338
22.5132
-12.6629
-8.44089
40.4365
44.8128
1.47069
-2.27493
33.0655
35.9838
-3.03548
-8.35415
-0.0172568
-1.93058
-21.5804
-32.432
-20.8403
0.00726808
1.45006
10.3937
14.506
7.51231
-0.00570654
11.3261
16.1044
11.3159
1.66026
-0.202523
-7.02125
-0.363739
-59.1841
-0.091928
-5.19603
-0.263288
-18.2422
-6.904
-31.1439
-71.6403
-88.5254
-133.114
-152.237
-54.2207
-70.0713
-104.598
-121.946
-127.652
46.5474
18.2781
-18.3863
-47.3608
-62.4188
-86.2392
-145.959
-148.688
-23.175
-48.5237
-72.4516
-94.272
-71.2549
-57.6508
-140.95
-107.589
-49.6797
-46.2167
-83.0896
-66.432
-55.196
-52.8419
-89.5667
-88.24
-43.1648
-38.932
-63.1658
-63.0741
-0.41746
-117.502
-0.374565
-118.498
-0.245905
-27.9313
-0.282644
-29.5142
-187.781
-214.894
-215.273
-244.602
-149.661
-173.546
-171.266
-196.572
-212.367
-213.252
-243.28
-189.409
-219.339
-170.698
-195.701
-151.691
-177.484
-216.813
-53.8718
-95.0756
-51.8424
-95.0381
-216.252
-202.967
-224.703
-209.823
-122.003
-136.346
-125.089
-136.427
-176.164
-151.251
-190.297
-163.087
-118.294
-108.894
-127.089
-114.169
-132.218
-133.008
-145.422
-147.6
-90.9754
-93.7426
-100.366
-102.535
-0.142418
-56.519
-0.0110326
-2.88037
-0.428916
-8.93099
-0.0267968
-2.02986
-141.463
-169.721
-91.8036
-120.103
-111.128
-137.49
-73.7541
-98.0157
-145.951
-11.652
-59.5511
-17.4251
-62.3621
21.7317
-18.1011
-171.467
-170.897
-100.867
-113.859
-90.8872
-132.691
-142.575
-115.17
-125.955
-100.605
-109.51
-88.9356
-97.6058
-58.9287
-75.9673
-183.823
-154.584
-114.578
-91.3383
-124.414
-110.345
-80.3872
-70.5728
-128.913
-129.485
-72.7422
-72.8003
-98.6519
-101.277
-59.9137
-60.9696
0.0120498
16.0851
-15.0173
-13.9407
3.22088
22.0857
-4.05846
-19.777
-18.5402
-44.0305
-53.1577
15.011
20.6296
-32.7852
-42.0647
-25.3505
-17.8477
-45.391
-34.395
28.7929
38.7114
-38.0529
-33.2747
0.55704
13.8709
-25.6774
-23.9355
46.0382
50.752
-29.3749
-29.2084
22.0391
25.7938
0.255234
22.0088
0.793926
80.393
0.292624
2.83404
0.257487
24.6086
12.2055
25.5494
63.8361
83.219
-0.574869
4.89316
48.0795
69.6713
44.9024
56.9277
94.7191
99.6449
24.5602
29.258
76.8467
80.3558
106.715
121.214
141.676
156.336
79.5223
96.7536
109.271
116.783
137.49
163.173
172.134
181.594
97.1604
131.985
133.719
131.542
-0.323094
2.43233
34.7205
48.2896
15.4671
25.4169
10.833
16.3286
8.07006
54.6084
74.4289
72.892
87.6682
21.4105
25.2874
35.7636
45.7515
71.0671
87.1484
102.745
83.7163
24.7636
11.9522
50.2788
42.1922
65.8486
81.163
108.58
117.373
36.068
53.516
86.8213
89.8415
110.217
172.047
170.527
206.593
193.933
133.794
131.508
159.9
150.013
174.621
178.986
189.357
195.781
142.151
145.511
147.96
156.13
22.8448
41.2256
81.8656
80.5406
102.082
91.6911
150.968
124.968
46.904
50.67
75.7597
71.9893
86.0335
91.1972
112.054
116.014
50.5372
53.6908
68.6243
71.1006
0.850845
82.9379
0.391963
15.2519
0.177943
25.4277
0.210026
4.10406
144.539
160.223
106.284
122.039
108.697
115.162
75.9578
83.2969
173.639
180.238
147.072
160.01
128.843
129.405
103.99
114.34
68.8083
87.1174
31.3338
48.9851
48.976
60.4209
18.851
33.9898
96.7864
119.668
60.0972
63.7908
76.5445
83.6737
44.153
45.9556
77.7236
81.4502
54.7883
60.2522
36.1585
46.014
25.5718
31.7326
82.6367
77.4893
61.2005
62.4918
42.4493
45.6178
29.9008
26.4914
-5.81225
13.8031
200.76
195.695
181.306
185.548
158.119
154.541
149.107
153.506
186.943
191.889
174.342
181
146.196
156.106
142.715
152.116
109.166