# vtk DataFile Version 3.0
Gravity inversion using rectangular prisms
ASCII
DATASET UNSTRUCTURED_GRID

POINTS	1200	double
100	100	100
100	100	300
100	100	500
100	100	700
100	100	900
100	300	100
100	300	300
100	300	500
100	300	700
100	300	900
100	500	100
100	500	300
100	500	500
100	500	700
100	500	900
100	700	100
100	700	300
100	700	500
100	700	700
100	700	900
100	900	100
100	900	300
100	900	500
100	900	700
100	900	900
100	1100	100
100	1100	300
100	1100	500
100	1100	700
100	1100	900
100	1300	100
100	1300	300
100	1300	500
100	1300	700
100	1300	900
100	1500	100
100	1500	300
100	1500	500
100	1500	700
100	1500	900
100	1700	100
100	1700	300
100	1700	500
100	1700	700
100	1700	900
100	1900	100
100	1900	300
100	1900	500
100	1900	700
100	1900	900
300	100	100
300	100	300
300	100	500
300	100	700
300	100	900
300	300	100
300	300	300
300	300	500
300	300	700
300	300	900
300	500	100
300	500	300
300	500	500
300	500	700
300	500	900
300	700	100
250	650	250
250	650	350
250	750	250
250	750	350
350	650	250
350	650	350
350	750	250
350	750	350
300	700	500
300	700	700
300	700	900
300	900	100
250	850	250
250	850	350
250	950	250
250	950	350
350	850	250
350	850	350
350	950	250
350	950	350
300	900	500
300	900	700
300	900	900
300	1100	100
300	1100	300
300	1100	500
300	1100	700
300	1100	900
300	1300	100
300	1300	300
300	1300	500
300	1300	700
300	1300	900
300	1500	100
300	1500	300
300	1500	500
300	1500	700
300	1500	900
300	1700	100
300	1700	300
300	1700	500
300	1700	700
300	1700	900
300	1900	100
300	1900	300
300	1900	500
300	1900	700
300	1900	900
500	100	100
500	100	300
500	100	500
500	100	700
500	100	900
500	300	100
450	250	250
450	250	350
450	350	250
450	350	350
550	250	250
550	250	350
550	350	250
550	350	350
500	300	500
500	300	700
500	300	900
500	500	100
450	450	250
450	450	350
450	550	250
450	550	350
550	450	250
550	450	350
550	550	250
550	550	350
500	500	500
500	500	700
500	500	900
450	650	50
450	650	150
450	750	50
450	750	150
550	650	50
550	650	150
550	750	50
550	750	150
450	650	250
450	650	350
450	750	250
450	750	350
550	650	250
550	650	350
550	750	250
550	750	350
500	700	500
500	700	700
500	700	900
450	850	50
450	850	150
450	950	50
450	950	150
550	850	50
550	850	150
550	950	50
550	950	150
450	850	250
450	850	350
450	950	250
450	950	350
550	850	250
550	850	350
550	950	250
550	950	350
500	900	500
500	900	700
500	900	900
500	1100	100
450	1050	250
450	1050	350
450	1150	250
450	1150	350
550	1050	250
550	1050	350
550	1150	250
550	1150	350
500	1100	500
500	1100	700
500	1100	900
500	1300	100
500	1300	300
500	1300	500
500	1300	700
500	1300	900
500	1500	100
500	1500	300
500	1500	500
500	1500	700
500	1500	900
500	1700	100
500	1700	300
500	1700	500
500	1700	700
500	1700	900
500	1900	100
500	1900	300
500	1900	500
500	1900	700
500	1900	900
700	100	100
700	100	300
700	100	500
700	100	700
700	100	900
700	300	100
650	250	250
650	250	350
650	350	250
650	350	350
750	250	250
750	250	350
750	350	250
750	350	350
700	300	500
700	300	700
700	300	900
650	450	50
650	450	150
650	550	50
650	550	150
750	450	50
750	450	150
750	550	50
750	550	150
650	450	250
650	450	350
650	550	250
650	550	350
750	450	250
750	450	350
750	550	250
750	550	350
650	450	450
650	450	550
650	550	450
650	550	550
750	450	450
750	450	550
750	550	450
750	550	550
700	500	700
700	500	900
650	650	50
650	650	150
650	750	50
650	750	150
750	650	50
750	650	150
750	750	50
750	750	150
650	650	250
650	650	350
650	750	250
650	750	350
750	650	250
750	650	350
750	750	250
750	750	350
650	650	450
650	650	550
650	750	450
650	750	550
750	650	450
750	650	550
750	750	450
750	750	550
700	700	700
700	700	900
650	850	50
650	850	150
650	950	50
650	950	150
750	850	50
750	850	150
750	950	50
750	950	150
650	850	250
650	850	350
650	950	250
650	950	350
750	850	250
750	850	350
750	950	250
750	950	350
650	850	450
650	850	550
650	950	450
650	950	550
750	850	450
750	850	550
750	950	450
750	950	550
700	900	700
700	900	900
700	1100	100
650	1050	250
650	1050	350
650	1150	250
650	1150	350
750	1050	250
750	1050	350
750	1150	250
750	1150	350
700	1100	500
700	1100	700
700	1100	900
700	1300	100
650	1250	250
650	1250	350
650	1350	250
650	1350	350
750	1250	250
750	1250	350
750	1350	250
750	1350	350
700	1300	500
700	1300	700
700	1300	900
700	1500	100
650	1450	250
650	1450	350
650	1550	250
650	1550	350
750	1450	250
750	1450	350
750	1550	250
750	1550	350
700	1500	500
700	1500	700
700	1500	900
700	1700	100
700	1700	300
700	1700	500
700	1700	700
700	1700	900
700	1900	100
700	1900	300
700	1900	500
700	1900	700
700	1900	900
900	100	100
900	100	300
900	100	500
900	100	700
900	100	900
900	300	100
850	250	250
850	250	350
850	350	250
850	350	350
950	250	250
950	250	350
950	350	250
950	350	350
900	300	500
900	300	700
900	300	900
850	450	50
850	450	150
850	550	50
850	550	150
950	450	50
950	450	150
950	550	50
950	550	150
850	450	250
850	450	350
850	550	250
850	550	350
950	450	250
950	450	350
950	550	250
950	550	350
850	450	450
850	450	550
850	550	450
850	550	550
950	450	450
950	450	550
950	550	450
950	550	550
900	500	700
900	500	900
850	650	50
850	650	150
850	750	50
850	750	150
950	650	50
950	650	150
950	750	50
950	750	150
850	650	250
850	650	350
850	750	250
850	750	350
950	650	250
950	650	350
950	750	250
950	750	350
850	650	450
850	650	550
850	750	450
850	750	550
950	650	450
950	650	550
950	750	450
950	750	550
900	700	700
900	700	900
850	850	50
850	850	150
850	950	50
850	950	150
950	850	50
950	850	150
950	950	50
950	950	150
850	850	250
850	850	350
850	950	250
850	950	350
950	850	250
950	850	350
950	950	250
950	950	350
850	850	450
850	850	550
850	950	450
850	950	550
950	850	450
950	850	550
950	950	450
950	950	550
900	900	700
900	900	900
850	1050	50
850	1050	150
850	1150	50
850	1150	150
950	1050	50
950	1050	150
950	1150	50
950	1150	150
850	1050	250
850	1050	350
850	1150	250
850	1150	350
950	1050	250
950	1050	350
950	1150	250
950	1150	350
900	1100	500
900	1100	700
900	1100	900
850	1250	50
850	1250	150
850	1350	50
850	1350	150
950	1250	50
950	1250	150
950	1350	50
950	1350	150
850	1250	250
850	1250	350
850	1350	250
850	1350	350
950	1250	250
950	1250	350
950	1350	250
950	1350	350
900	1300	500
900	1300	700
900	1300	900
850	1450	50
850	1450	150
850	1550	50
850	1550	150
950	1450	50
950	1450	150
950	1550	50
950	1550	150
850	1450	250
850	1450	350
850	1550	250
850	1550	350
950	1450	250
950	1450	350
950	1550	250
950	1550	350
900	1500	500
900	1500	700
900	1500	900
900	1700	100
850	1650	250
850	1650	350
850	1750	250
850	1750	350
950	1650	250
950	1650	350
950	1750	250
950	1750	350
900	1700	500
900	1700	700
900	1700	900
900	1900	100
900	1900	300
900	1900	500
900	1900	700
900	1900	900
1100	100	100
1100	100	300
1100	100	500
1100	100	700
1100	100	900
1100	300	100
1100	300	300
1100	300	500
1100	300	700
1100	300	900
1100	500	100
1050	450	250
1050	450	350
1050	550	250
1050	550	350
1150	450	250
1150	450	350
1150	550	250
1150	550	350
1050	450	450
1050	450	550
1050	550	450
1050	550	550
1150	450	450
1150	450	550
1150	550	450
1150	550	550
1100	500	700
1100	500	900
1050	650	50
1050	650	150
1050	750	50
1050	750	150
1150	650	50
1150	650	150
1150	750	50
1150	750	150
1050	650	250
1050	650	350
1050	750	250
1050	750	350
1150	650	250
1150	650	350
1150	750	250
1150	750	350
1050	650	450
1050	650	550
1050	750	450
1050	750	550
1150	650	450
1150	650	550
1150	750	450
1150	750	550
1100	700	700
1100	700	900
1100	900	100
1050	850	250
1050	850	350
1050	950	250
1050	950	350
1150	850	250
1150	850	350
1150	950	250
1150	950	350
1050	850	450
1050	850	550
1050	950	450
1050	950	550
1150	850	450
1150	850	550
1150	950	450
1150	950	550
1100	900	700
1100	900	900
1050	1050	50
1050	1050	150
1050	1150	50
1050	1150	150
1150	1050	50
1150	1050	150
1150	1150	50
1150	1150	150
1050	1050	250
1050	1050	350
1050	1150	250
1050	1150	350
1150	1050	250
1150	1050	350
1150	1150	250
1150	1150	350
1100	1100	500
1100	1100	700
1100	1100	900
1050	1250	50
1050	1250	150
1050	1350	50
1050	1350	150
1150	1250	50
1150	1250	150
1150	1350	50
1150	1350	150
1050	1250	250
1050	1250	350
1050	1350	250
1050	1350	350
1150	1250	250
1150	1250	350
1150	1350	250
1150	1350	350
1050	1250	450
1050	1250	550
1050	1350	450
1050	1350	550
1150	1250	450
1150	1250	550
1150	1350	450
1150	1350	550
1100	1300	700
1100	1300	900
1050	1450	50
1050	1450	150
1050	1550	50
1050	1550	150
1150	1450	50
1150	1450	150
1150	1550	50
1150	1550	150
1050	1450	250
1050	1450	350
1050	1550	250
1050	1550	350
1150	1450	250
1150	1450	350
1150	1550	250
1150	1550	350
1050	1450	450
1050	1450	550
1050	1550	450
1050	1550	550
1150	1450	450
1150	1450	550
1150	1550	450
1150	1550	550
1100	1500	700
1100	1500	900
1100	1700	100
1050	1650	250
1050	1650	350
1050	1750	250
1050	1750	350
1150	1650	250
1150	1650	350
1150	1750	250
1150	1750	350
1100	1700	500
1100	1700	700
1100	1700	900
1100	1900	100
1100	1900	300
1100	1900	500
1100	1900	700
1100	1900	900
1300	100	100
1300	100	300
1300	100	500
1300	100	700
1300	100	900
1300	300	100
1250	250	250
1250	250	350
1250	350	250
1250	350	350
1350	250	250
1350	250	350
1350	350	250
1350	350	350
1300	300	500
1300	300	700
1300	300	900
1250	450	50
1250	450	150
1250	550	50
1250	550	150
1350	450	50
1350	450	150
1350	550	50
1350	550	150
1250	450	250
1250	450	350
1250	550	250
1250	550	350
1350	450	250
1350	450	350
1350	550	250
1350	550	350
1250	450	450
1250	450	550
1250	550	450
1250	550	550
1350	450	450
1350	450	550
1350	550	450
1350	550	550
1300	500	700
1300	500	900
1250	650	50
1250	650	150
1250	750	50
1250	750	150
1350	650	50
1350	650	150
1350	750	50
1350	750	150
1250	650	250
1250	650	350
1250	750	250
1250	750	350
1350	650	250
1350	650	350
1350	750	250
1350	750	350
1250	650	450
1250	650	550
1250	750	450
1250	750	550
1350	650	450
1350	650	550
1350	750	450
1350	750	550
1300	700	700
1300	700	900
1250	850	50
1250	850	150
1250	950	50
1250	950	150
1350	850	50
1350	850	150
1350	950	50
1350	950	150
1250	850	250
1250	850	350
1250	950	250
1250	950	350
1350	850	250
1350	850	350
1350	950	250
1350	950	350
1250	850	450
1250	850	550
1250	950	450
1250	950	550
1350	850	450
1350	850	550
1350	950	450
1350	950	550
1300	900	700
1300	900	900
1250	1050	50
1250	1050	150
1250	1150	50
[...]
CELL_DATA	1200
SCALARS model double 1
LOOKUP_TABLE table0
-0.102129
0.906907
-2.66602
-0.601988
-0.319898
0.0755074
0.907273
-2.65022
-0.604582
-0.313404
0.13422
0.909392
-2.57482
-0.59131
-0.308741
0.184047
0.865848
-2.56316
-0.589047
-0.259965
-0.150151
0.700407
-2.28668
-0.590848
-0.2665
-0.15256
0.755233
-2.24099
-0.656971
-0.277206
-0.16563
1.20801
-1.91817
-0.663569
-0.861679
-0.166459
1.19805
-1.94324
-0.684999
-1.121
-0.152761
1.18498
-1.85677
-0.729296
-1.13149
-0.135001
1.13506
-1.85739
-0.729877
-1.13415
-0.228453
1.11874
-2.67935
-0.602769
-0.317021
-0.0775646
0.892276
-2.65508
-0.603677
-0.314915
-0.0229109
-3.78427
-2.58127
-0.588234
-0.304257
0.175652
-3.62355
-3.60297
-3.61648
-3.60389
-3.62832
-3.60611
-3.62832
-3.60288
-2.56012
-0.584351
-0.260904
-0.218295
-3.53008
-3.55542
-3.52548
-3.55511
-3.54088
-3.56564
-3.53628
-3.561
-2.30856
-0.594784
-0.259281
-0.14978
-2.05866
-2.39782
-0.662453
-0.25945
-0.49043
-0.374808
-1.94016
-0.674554
-0.861698
-0.632591
0.677626
-1.96297
-0.69223
-1.1121
-0.190306
1.19647
-2.00028
-0.729746
-1.12185
-0.23162
1.20169
-1.99976
-0.730197
-1.13296
-0.193155
2.81286
-3.13616
1.49312
2.74324
-0.989824
-3.50913
-2.30711
-3.52838
-2.30917
-3.51169
-2.308
-3.53676
-2.30854
-3.48554
1.83961
2.74514
1.25144
36.2693
48.5417
36.2935
48.5425
36.2692
48.5517
36.3468
48.5566
33.5172
1.81123
3.20702
4.98011
14.7075
4.98192
14.7082
5.09727
15.0581
5.09986
15.0151
63.0003
68.6386
62.9907
68.6434
63.0584
68.6511
63.0461
68.648
34.1908
7.1251
3.24868
2.70548
-16.2912
2.65228
-16.2599
2.75936
-16.2619
2.70526
-16.2572
56.8129
68.6429
56.6981
68.6424
56.8275
68.6462
56.8068
68.6435
27.6215
7.05875
3.27261
-3.2135
-3.33774
-3.08159
-3.32479
-3.08369
-3.33928
-3.08419
-3.32603
-3.08364
-8.80008
6.22466
2.89983
-1.54956
-0.66673
-8.13967
-1.43485
0.545537
-0.683948
-0.619059
-2.72648
-1.17128
-1.11009
-0.266851
0.293648
-2.05775
-1.08865
-1.10654
-0.262529
0.334089
-2.07508
-1.08802
-1.10829
0.243643
-1.877
-3.13176
1.62601
2.73775
-0.767456
-3.34868
-1.78884
-3.38893
-1.79915
-3.34969
-1.79558
-3.36008
-1.7915
-3.35244
1.84662
2.75207
5.21747
35.2498
6.18065
35.7154
5.22124
35.2439
6.18317
35.7263
130.028
127.871
130.039
127.89
130.028
127.873
130.042
127.895
42.1065
40.8447
42.108
40.8447
42.1068
40.8424
42.1088
40.8439
5.05355
3.24573
24.3698
171.675
24.3625
171.677
24.4356
171.679
24.3908
171.681
212.986
181.266
212.985
181.268
212.988
181.286
212.988
181.286
43.6967
40.5911
43.7
40.5913
43.7001
40.59
43.6992
40.5905
12.1447
3.37803
7.66762
34.131
7.4496
34.0972
7.6785
34.126
7.45943
34.0986
112.049
110.354
111.973
110.335
112.046
110.353
111.973
110.344
40.6045
40.7411
40.6001
40.7415
40.6054
40.7403
40.6006
40.7405
11.9703
4.40521
-4.22872
10.4234
19.8545
10.4251
19.8481
10.4159
19.8628
10.423
19.8632
10.1446
11.9615
4.41935
-2.56841
12.7579
21.2706
12.7499
21.2714
12.7542
21.2761
12.7616
21.2817
6.48229
8.72176
4.4241
-2.16579
12.7526
21.2664
12.7564
21.2668
12.7818
21.2852
12.782
21.2828
6.48708
8.51455
4.09155
-0.300971
1.011
-2.90671
-0.399586
0.536428
-0.297814
1.15724
-2.90693
-0.411131
0.525807
0.469479
-1.93759
-3.07736
1.77806
2.73685
-0.793004
-3.31319
-1.79173
-3.31874
-1.77419
-3.31209
-1.7861
-3.31449
-1.78374
-3.33947
1.79462
2.7408
2.41769
0.150874
3.17134
0.52954
2.28007
0.168759
2.88901
0.198927
124.007
135.046
124.018
135.069
124
135.053
124.002
135.067
42.1029
40.8449
42.106
40.846
42.1004
40.8448
42.1013
40.8433
5.058
3.22956
2.50011
113.099
2.48553
113.09
2.29304
113.032
2.28385
113.048
205.071
190.063
205.071
190.059
205.045
190.04
205.047
190.039
43.6178
40.5441
43.6189
40.545
43.6041
40.5449
43.6036
40.5443
12.3488
3.38999
4.97105
7.02127
3.73413
6.55198
4.66632
6.83986
3.70927
6.41987
106.292
108.457
106.224
108.436
106.277
108.45
106.206
108.43
40.7024
40.8207
40.6898
40.8202
40.7022
40.8194
40.6901
40.8196
12.4285
4.42497
5.63749
-52.3196
5.65585
-52.3288
5.61784
-52.3304
5.646
-52.3249
27.9497
50.1961
27.9506
50.1958
27.9801
50.2108
27.9764
50.2116
34.8419
13.0652
4.46174
9.39108
51.0261
9.48707
51.0739
9.85288
51.0565
9.98952
51.167
89.3693
86.961
89.4124
86.9996
89.4069
87.0128
89.4448
87.0139
47.6111
14.2287
4.58606
8.64689
52.4713
8.61884
52.3352
8.77862
52.6128
8.74949
52.5837
92.0367
88.6493
91.9874
88.6424
92.0561
88.6653
92.0065
88.6649
47.6947
14.2361
4.61356
1.55764
2.21526
2.72858
2.21667
2.71975
2.21257
2.73138
2.2174
2.72196
-0.605181
2.32725
4.56111
0.0474044
1.62883
-0.611597
2.30862
4.56347
0.381077
-3.47513
2.36379
1.50319
2.05212
0.962484
-0.399185
1.0084
1.49498
2.06878
0.970039
-45.416
-51.8706
-45.8178
-51.8762
-45.4459
-51.8863
-45.83
-51.8781
-19.3412
-19.3604
-19.3374
-19.3601
-19.3465
-19.364
-19.3463
-19.3637
2.40177
2.07978
0.438769
-14.4856
0.524007
-14.4743
0.687953
-14.4693
0.675256
-14.3692
-92.6716
-91.7986
-92.6711
-91.7892
-92.6853
-91.8055
-92.6844
-91.8063
-18.6301
-19.1337
-18.6339
-19.1276
-18.6416
-19.1351
-18.6353
-19.1318
2.42657
3.13817
-0.372031
-30.58
-30.1063
-30.576
-30.0935
-30.5884
-30.1177
-30.5546
-30.1042
-10.3176
-8.84705
-10.3086
-8.84677
-10.3184
-8.84931
-10.3102
-8.84886
12.5975
4.51287
3.49156
-21.8102
3.39784
-21.8745
3.39632
-21.7633
3.34404
-21.8186
47.1974
60.2399
47.1941
60.2289
47.2091
60.2479
47.2132
60.2498
36.3681
19.0401
4.51619
23.498
100.358
26.3115
101.786
23.5253
100.383
26.2297
101.792
141.341
128.758
141.515
128.772
141.333
128.851
141.489
128.852
46.975
44.2358
46.9689
44.2358
46.9771
44.2362
46.9742
44.2355
20.7593
4.70187
26.5952
115.282
24.8227
115.25
26.4723
115.287
25.0561
115.251
142.4
128.864
142.363
128.87
142.353
128.861
142.331
128.866
46.9725
44.2352
46.9716
44.2362
46.9718
44.2361
46.9714
44.2364
20.8367
4.73611
3.455
13.6694
17.8993
13.654
17.8715
13.6757
17.8997
13.6709
17.8717
20.4737
2.35962
4.56456
1.21468
-2.70194
0.124013
2.34733
4.5652
0.157466
-4.22102
2.50291
1.67086
1.87347
0.446195
12.3896
10.3032
12.3954
10.3016
12.3892
10.3019
12.412
10.3012
0.871726
1.55531
1.88879
-9.19306
11.617
-9.65988
11.2062
-9.50246
11.4565
-9.82638
10.9397
-143.569
-152.689
-143.586
-152.804
-143.558
-152.688
-143.592
-152.81
-64.2704
-64.3365
-64.2656
-64.3381
-64.2686
-64.3399
-64.2682
-64.3402
0.84253
2.0265
-8.07396
-134.34
-8.07213
-134.32
-8.13751
-134.356
-8.1253
-134.351
-326.628
-304.572
-326.631
-304.531
-326.649
-304.573
-326.652
-304.531
-64.2635
-63.7902
-64.2513
-63.7888
-64.2656
-63.7916
-64.2529
-63.7915
0.764017
2.75069
-7.58895
2.42091
0.573245
3.82755
-7.82044
2.37449
-1.16028
3.56695
-207.547
-210.303
-207.088
-210.283
-207.576
-210.323
-207.26
-210.304
-55.5372
-56.3217
-55.5335
-56.2983
-55.5346
-56.3164
-55.533
-56.2951
0.765021
2.3217
0.477809
-3.02466
0.000588134
-3.07867
0.37091
-3.06482
-0.261647
-3.78446
66.1332
74.9179
66.1385
74.9274
66.1176
74.9173
66.1262
74.9207
36.4953
37.2194
36.5219
37.2264
36.497
37.2208
36.5205
37.2252
20.3449
3.99137
22.8717
104.722
26.2195
105.188
22.6244
104.719
26.2591
105.192
141.335
128.837
141.377
128.847
141.229
128.833
141.377
128.84
46.952
44.2379
46.9608
44.237
46.8973
44.2388
46.9085
44.2397
21.0534
4.71561
25.7119
112.643
25.0654
112.366
25.6896
112.639
24.9786
112.365
142.33
128.875
142.303
128.87
142.319
128.874
142.304
128.866
46.9632
44.2369
46.9651
44.2362
46.9048
44.217
46.9061
44.2139
21.2977
4.73512
3.46262
13.6665
17.8915
13.6611
17.8707
13.6377
17.8774
13.6361
17.8679
20.703
2.54361
4.56143
1.25991
-2.69011
0.497944
2.53789
4.56384
0.0436097
-4.41948
1.09065
1.66918
1.62973
0.527767
12.3831
10.35
12.405
10.3522
12.3866
10.3488
12.3888
10.3496
0.863526
1.55226
1.69022
-8.51685
5.55258
-8.53528
5.5006
-5.79647
7.69017
-6.50046
7.31424
-85.5142
-95.4903
-85.5551
-95.5371
-85.3977
-95.4895
-85.4296
-95.4897
-64.2665
-64.3398
-64.2683
-64.3388
-64.2644
-64.3421
-64.2624
-64.3422
0.839352
1.93151
-8.05278
-33.1652
-7.97854
-31.2311
-6.98721
-30.5546
-6.98841
-30.5826
-257.836
-254.621
-257.843
-254.631
-257.75
-254.531
-257.76
-254.527
-64.2761
-63.7909
-64.271
-63.7906
-64.2774
-63.7938
-64.2715
-63.7877
0.753799
2.66513
-4.42078
23.8384
-2.50077
23.7942
-1.53382
23.8461
-0.883973
24.1621
-149.617
-166.572
-149.404
-166.537
-149.527
-166.551
-149.351
-166.531
-55.4919
-55.4259
-55.488
-55.4262
-55.4899
-55.4238
-55.474
-55.423
0.585779
2.30337
-1.18523
-1.92054
-1.56035
-3.52158
-1.18249
-1.86231
-1.56995
-3.45746
66.1018
74.932
66.1125
74.9324
66.0907
74.9346
66.0524
74.9359
12.9498
13.7248
12.957
13.7313
12.9417
13.7239
12.9475
13.7294
19.0401
3.96213
12.4056
35.3931
12.8077
39.0411
12.2255
35.3376
12.2993
39.037
82.4129
87.1989
83.768
87.3029
82.3948
87.1672
83.6685
87.298
46.1196
19.1129
3.95516
12.0418
51.7702
9.30089
51.4462
11.7771
51.7458
8.76091
51.0919
97.7815
93.815
97.7512
93.8074
97.7558
93.8182
97.756
93.8314
46.9012
44.1901
46.9023
44.1852
46.8938
44.1862
46.8923
44.1831
19.1462
4.71377
1.85458
2.5556
10.1919
2.55983
10.1951
2.55321
10.1832
2.54963
10.1841
12.4435
2.51709
4.55888
0.602219
-2.97698
0.233263
2.5124
4.5628
0.107859
-1.90179
0.688314
0.0835374
0.159205
0.666912
0.437045
0.465013
-0.0171126
0.176178
1.90826
0.752989
0.157823
0.767789
0.153427
0.750653
0.156059
0.752371
0.150691
-2.01883
0.168608
1.41689
3.43588
0.815008
0.101782
0.838055
0.100694
0.807091
0.099086
0.806934
0.0961384
-2.37638
0.0681856
1.43328
2.35135
2.89028
-0.0292461
2.88675
-0.0365543
2.80398
-0.00149201
2.84351
-0.0109554
-2.37313
0.0977239
1.42905
0.477253
-0.284205
-0.479928
-0.39993
-0.491102
-0.267866
-0.478191
-0.268334
-0.476944
-2.26854
-0.895591
0.0684682
2.26075
-1.89766
-2.78282
-1.88132
-2.78127
-1.90368
-2.79042
-1.87427
-2.78409
-2.30496
-0.884718
0.0451987
2.51158
0.991671
1.45239
0.992908
1.46691
0.989568
1.44126
0.994229
1.42259
-1.7081
-0.587469
0.0206816
0.537
1.04184
-0.153616
-0.510811
-0.487855
0.036342
0.549769
-0.157429
-0.511683
-0.482466
0.12584
-2.20578
0.67444
0.0756742
0.152373
0.191386
-1.31936
0.465902
-0.0420558
0.155861
0.410637
-0.640455
-2.13779
0.14975
1.41706
0.325353
0.528963
-2.23945
0.0936632
1.43019
0.542012
0.209152
-2.2929
0.095674
1.43007
0.647804
-0.372753
-2.27317
-0.938377
0.0690163
1.24907
-2.28899
-1.8341
-0.931171
0.0345327
0.534921
1.19878
-1.78181
-0.58401
0.0135055
-0.116129
1.12808
-0.132197
-0.513597
-0.483718
-0.411863
0.570347
-0.158081
-0.510257
-0.484926
SCALARS m0 double 1
LOOKUP_TABLE table1
0
0
0
0
0
0
0
0
0
0
0
0
0
0
0
0
0
0
0
0
0
0
0
0
0
0
0
0
0
0
0
0
0
0
0
0
0
0
0
0
0
0
0
0
0
0
0
0
0
0
0
0
0
0
0
0
0
0
0
0
0
0
0
0
0
0
0
0
0
0
0
0
0
0
0
0
0
0
0
0
0
0
0
0
0
0
0
0
0
0
0
0
0
0
0
0
0
0
0
0
0
0
0
0
0
0
0
0
0
0
0
0
0
0
0
0
0
0
0
0
0
0
0
0
0
0
0
0
0
0
0
0
0
0
0
0
0
0
0
0
0
0
0
0
0
0
0
0
0
0
0
0
0
0
0
0
0
0
0
0
0
0
0
0
0
0
0
0
0
0
0
0
0
0
0
0
0
0
0
0
0
0
0
0
0
0
0
0
0
0
0
0
0
0
0
0
0
0
0
0
0
0
0
0
0
0
0
0
0
0
0
0
0
0
0
0
0
0
0
0
0
0
0
0
0
0
0
0
0
0
0
0
0
0
0
0
0
0
0
0
0
0
0
0
0
0
0
0
0
0
0
0
0
0
0
0
0
0
0
0
0
0
0
0
0
0
0
0
0
0
0
0
0
0
0
0
0
0
0
0
0
0
0
0
0
0
0
0
0
0
0
0
0
0
0
0
0
0
0
0
0
0
0
0
0
0
0
0
0
0
0
0
0
0
0
0
0
0
0
0
0
0
0
0
0
0
0
0
0
0
0
0
0
0
0
0
0
0
0
0
0
0
0
0
0
0
0
0
0
0
0
0
0
0
0
0
0
0
0
0
0
0
0
0
0
0
0
0
0
0
0
0
0
0
0
0
0
0
0
0
0
0
0
0
0
0
0
0
0
0
0
0
0
0
0
0
0
0
0
0
0
0
0
0
0
0
0
0
0
0
0
0
0
0
0
0
0
0
0
0
0
0
0
0
0
0
0
0
0
0
0
0
0
0
0
0
0
0
0
0
0
0
0
0
0
0
0
0
0
0
0
0
0
0
0
0
0
0
0
0
0
0
0
0
0
0
0
0
0
0
0
0
0
0
0
0
0
0
0
0
0
0
0
0
0
0
0
0
0
0
0
0
0
0
0
0
0
0
0
0
0
0
0
0
0
0
0
0
0
0
0
0
0
0
0
0
0
0
0
0
0
0
0
0
0
0
0
0
0
0
0
0
0
0
0
0
0
0
0
0
0
0
0
0
0
0
0
0
0
0
0
0
0
0
0
0
0
0
0
0
0
0
0
0
0
0
0
0
0
0
0
0
0
0
0
0
0
0
0
0
0
0
0
0
0
0
0
0
0
0
0
0
0
0
0
0
0
0
0
0
0
0
0
0
0
0
0
0
0
0
0
0
0
0
0
0
0
0
0
0
0
0
0
0
0
0
0
0
0
0
0
0
0
0
0
0
0
0
0
0
0
0
0
0
0
0
0
0
0
0
0
0
0
0
0
0
0
0
0
0
0
0
0
0
0
0
0
0
0
0
0
0
0
0
0
0
0
0
0
0
0
0
0
0
0
0
0
0
0
0
0
0
0
0
0
0
0
0
0
0
0
0
0
0
0
0
0
0
0
0
0
0
0
0
0
0
0
0
0
0
0
0
0
0
0
0
0
0
0
0
0
0
0
0
0
0
0
0
0
0
0
0
0
0
0
0
0
0
0
0
0
0
0
0
0
0
0
0
0
0
0
0
0
0
0
0
0
0
0
0
0
0
0
0
0
0
0
0
0
0
0
0
0
0
0
0
0
0
0
0
0
0
0
0
0
0
0
0
0
0
0
0
0
0
0
0
0
0
0
0
0
0
0
0
0
0
0
0
0
0
0
0
0
0
0
0
0
0
0
0
0
0
0
0
0
0
0
0
0
0
0
0
0
0
0
0
0
0
0
0
0
0
0
0
0
0
0
0
0
0
0
0
0
0
0
0
0
0
0
0
0
0
0
0
0
0
0
0
0
0
0
0
0
0
0
0
0
0
0
0
0
0
0
0
0
0
0
0
0
0
0
0
0
0
0
0
0
0
0
0
0
0
0
0
0
0
0
0
0
0
0
0
0
0
0
0
0
0
0
0
0
0
0
0
0
0
0
0
0
0
0
0
0
0
0
0
0
0
0
0
0
0
0
0
0
0
0
0
0
0
0
0
0
0
0
0
0
0
0
0
0
0
0
0
0
0
0
0
0
0
0
0
0
0
0
0
0
0
0
0
0
0
0
0
0
0
0
0
0
0
0
0
0
0
0
0
0
0
0
0
0
0
0
0
0
0
0
0
0
0
0
0
0
0
0
0
0
0
0
0
0
0
0
0
0
0
0
0
0
0
0
0
0
0
0
0
0
0
0
0
0
0
0
0
0
0
0
0
0
0
0
0
0
0
0
0
0
0
0
0
0
0
0
0
0
0
0
0
0
0
0
0
0
0
0
0
0
0
0
0
0
0
0
0
0
0
0
0
0
0
0
0
0
0
0
0
0
0
0
0
0
0
0
0
0
0
0
0
0
0
0
0
0
0
0
0
0
0
0
0
0
0
0
0
0
0
0
0
0
0
0
0
0
0
0
0
0
0
0
0
0
0
0
0
0
0
0
0
0
0
0
0
0
0
0
0
0
0
0
0
0
0
0
0
0
0
0
0
0
0
0
0
0
0
0
0
0
0
0
0
0
0
0
0
0
0
0
0
0
0
SCALARS m0s double 1
LOOKUP_TABLE table2
0
0
0
0
0
0
0
0
0
0
0
0
0
0
0
0
0
0
0
0
0
0
0
0
0
0
0
0
0
0
0
0
0
0
0
0
0
0
0
0
0
0
0
0
0
0
0
0
0
0
0
0
0
0
0
0
0
0
0
0
0
0
0
0
0
0
0
0
0
0
0
0
0
0
0
0
0
0
0
0
0
0
0
0
0
0
0
0
0
0
0
0
0
0
0
0
0
0
0
0
0
0
0
0
0
0
0
0
0
0
0
0
0
0
0
0
0
0
0
0
0
0
0
0
0
0
0
0
0
0
0
0
0
0
0
0
0
0
0
0
0
0
0
0
0
0
0
0
0
0
0
0
0
0
0
0
0
0
0
0
0
0
0
0
0
0
0
0
0
0
0
0
0
0
0
0
0
0
0
0
0
0
0
0
0
0
0
0
0
0
0
0
0
0
0
0
0
0
0
0
0
0
0
0
0
0
0
0
0
0
0
0
0
0
0
0
0
0
0
0
0
0
0
0
0
0
0
0
0
0
0
0
0
0
0
0
0
0
0
0
0
0
0
0
0
0
0
0
0
0
0
0
0
0
0
0
0
0
0
0
0
0
0
0
0
0
0
0
0
0
0
0
0
0
0
0
0
0
0
0
0
0
0
0
0
0
0
0
0
0
0
0
0
0
0
0
0
0
0
0
0
0
0
0
0
0
0
0
0
0
0
0
0
0
0
0
0
0
0
0
0
0
0
0
0
0
0
0
0
0
0
0
0
0
0
0
0
0
0
0
0
0
0
0
0
0
0
0
0
0
0
0
0
0
0
0
0
0
0
0
0
0
0
0
0
0
0
0
0
0
0
0
0
0
0
0
0
0
0
0
0
0
0
0
0
0
0
0
0
0
0
0
0
0
0
0
0
0
0
0
0
0
0
0
0
0
0
0
0
0
0
0
0
0
0
0
0
0
0
0
0
0
0
0
0
0
0
0
0
0
0
0
0
0
0
0
0
0
0
0
0
0
0
0
0
0
0
0
0
0
0
0
0
0
0
0
0
0
0
0
0
0
0
0
0
0
0
0
0
0
0
0
0
0
0
0
0
0
0
0
0
0
0
0
0
0
0
0
0
0
0
0
0
0
0
0
0
0
0
0
0
0
0
0
0
0
0
0
0
0
0
0
0
0
0
0
0
0
0
0
0
0
0
0
0
0
0
0
0
0
0
0
0
0
0
0
0
0
0
0
0
0
0
0
0
0
0
0
0
0
0
0
0
0
0
0
0
0
0
0
0
0
0
0
0
0
0
0
0
0
0
0
0
0
0
0
0
0
0
0
0
0
0
0
0
0
0
0
0
0
0
0
0
0
0
0
0
0
0
0
0
0
0
0
0
0
0
0
0
0
0
0
0
0
0
0
0
0
0
0
0
0
0
0
0
0
0
0
0
0
0
0
0
0
0
0
0
0
0
0
0
0
0
0
0
0
0
0
0
0
0
0
0
0
0
0
0
0
0
0
0
0
0
0
0
0
0
0
0
0
0
0
0
0
0
0
0
0
0
0
0
0
0
0
0
0
0
0
0
0
0
0
0
0
0
0
0
0
0
0
0
0
0
0
0
0
0
0
0
0
0
0
0
0
0
0
0
0
0
0
0
0
0
0
0
0
0
0
0
0
0
0
0
0
0
0
0
0
0
0
0
0
0
0
0
0
0
0
0
0
0
0
0
0
0
0
0
0
0
0
0
0
0
0
0
0
0
0
0
0
0
0
0
0
0
0
0
0
0
0
0
0
0
0
0
0
0
0
0
0
0
0
0
0
0
0
0
0
0
0
0
0
0
0
0
0
0
0
0
0
0
0
0
0
0
0
0
0
0
0
0
0
0
0
0
0
0
0
0
0
0
0
0
0
0
0
0
0
0
0
0
0
0
0
0
0
0
0
0
0
0
0
0
0
0
0
0
0
0
0
0
0
0
0
0
0
0
0
0
0
0
0
0
0
0
0
0
0
0
0
0
0
0
0
0
0
0
0
0
0
0
0
0
0
0
0
0
0
0
0
0
0
0
0
0
0
0
0
0
0
0
0
0
0
0
0
0
0
0
0
0
0
0
0
0
0
0
0
0
0
0
0
0
0
0
0
0
0
0
0
0
0
0
0
0
0
0
0
0
0
0
0
0
0
0
0
0
0
0
0
0
0
0
0
0
0
0
0
0
0
0
0
0
0
0
0
0
0
0
0
0
0
0
0
0
0
0
0
0
0
0
0
0
0
0
0
0
0
0
0
0
0
0
0
0
0
0
0
0
0
0
0
0
0
0
0
0
0
0
0
0
0
0
0
0
0
0
0
0
0
0
0
0
0
0
0
0
0
0
0
0
0
0
0
0
0
0
0
0
0
0
0
0
0
0
0
0
0
0
0
0
0
0
0
0
0
0
0
0
0
0
0
0
0
0
0
0
0
0
0
0
0
0
0
0
0
0
0
0
0
0
0
0
0
0
0
0
0
0
0
0
0
0
0
0
0
0
0
0
0
0
0
0
0
0
0
0
0
0
0
0
0
0
0
0
0
0
0
0
0
0
0
0
0
0
0
0
0
0
0
0
0
0
0
0
0
0
0
0
0
0
0
0
0
0
0
0
0
0
0
0
0
0
0
0
0
0
0
0
0
0
0
0
0
0
0
0
0
0
0
0
0
0
0
0
0
0
0
0
0
0
0
0
0
0
0
0
0
0
0

POINT_DATA	1200
SCALARS model double 1
LOOKUP_TABLE table0
-0.102129
0.906907
-2.66602
-0.601988
-0.319898
0.0755074
0.907273
-2.65022
-0.604582
-0.313404
0.13422
0.909392
-2.57482
-0.59131
-0.308741
0.184047
0.865848
-2.56316
-0.589047
-0.259965
-0.150151
0.700407
-2.28668
-0.590848
-0.2665
-0.15256
0.755233
-2.24099
-0.656971
-0.277206
-0.16563
1.20801
-1.91817
-0.663569
-0.861679
-0.166459
1.19805
-1.94324
-0.684999
-1.121
-0.152761
1.18498
-1.85677
-0.729296
-1.13149
-0.135001
1.13506
-1.85739
-0.729877
-1.13415
-0.228453
1.11874
-2.67935
-0.602769
-0.317021
-0.0775646
0.892276
-2.65508
-0.603677
-0.314915
-0.0229109
-3.78427
-2.58127
-0.588234
-0.304257
0.175652
-3.62355
-3.60297
-3.61648
-3.60389
-3.62832
-3.60611
-3.62832
-3.60288
-2.56012
-0.584351
-0.260904
-0.218295
-3.53008
-3.55542
-3.52548
-3.55511
-3.54088
-3.56564
-3.53628
-3.561
-2.30856
-0.594784
-0.259281
-0.14978
-2.05866
-2.39782
-0.662453
-0.25945
-0.49043
-0.374808
-1.94016
-0.674554
-0.861698
-0.632591
0.677626
-1.96297
-0.69223
-1.1121
-0.190306
1.19647
-2.00028
-0.729746
-1.12185
-0.23162
1.20169
-1.99976
-0.730197
-1.13296
-0.193155
2.81286
-3.13616
1.49312
2.74324
-0.989824
-3.50913
-2.30711
-3.52838
-2.30917
-3.51169
-2.308
-3.53676
-2.30854
-3.48554
1.83961
2.74514
1.25144
36.2693
48.5417
36.2935
48.5425
36.2692
48.5517
36.3468
48.5566
33.5172
1.81123
3.20702
4.98011
14.7075
4.98192
14.7082
5.09727
15.0581
5.09986
15.0151
63.0003
68.6386
62.9907
68.6434
63.0584
68.6511
63.0461
68.648
34.1908
7.1251
3.24868
2.70548
-16.2912
2.65228
-16.2599
2.75936
-16.2619
2.70526
-16.2572
56.8129
68.6429
56.6981
68.6424
56.8275
68.6462
56.8068
68.6435
27.6215
7.05875
3.27261
-3.2135
-3.33774
-3.08159
-3.32479
-3.08369
-3.33928
-3.08419
-3.32603
-3.08364
-8.80008
6.22466
2.89983
-1.54956
-0.66673
-8.13967
-1.43485
0.545537
-0.683948
-0.619059
-2.72648
-1.17128
-1.11009
-0.266851
0.293648
-2.05775
-1.08865
-1.10654
-0.262529
0.334089
-2.07508
-1.08802
-1.10829
0.243643
-1.877
-3.13176
1.62601
2.73775
-0.767456
-3.34868
-1.78884
-3.38893
-1.79915
-3.34969
-1.79558
-3.36008
-1.7915
-3.35244
1.84662
2.75207
5.21747
35.2498
6.18065
35.7154
5.22124
35.2439
6.18317
35.7263
130.028
127.871
130.039
127.89
130.028
127.873
130.042
127.895
42.1065
40.8447
42.108
40.8447
42.1068
40.8424
42.1088
40.8439
5.05355
3.24573
24.3698
171.675
24.3625
171.677
24.4356
171.679
24.3908
171.681
212.986
181.266
212.985
181.268
212.988
181.286
212.988
181.286
43.6967
40.5911
43.7
40.5913
43.7001
40.59
43.6992
40.5905
12.1447
3.37803
7.66762
34.131
7.4496
34.0972
7.6785
34.126
7.45943
34.0986
112.049
110.354
111.973
110.335
112.046
110.353
111.973
110.344
40.6045
40.7411
40.6001
40.7415
40.6054
40.7403
40.6006
40.7405
11.9703
4.40521
-4.22872
10.4234
19.8545
10.4251
19.8481
10.4159
19.8628
10.423
19.8632
10.1446
11.9615
4.41935
-2.56841
12.7579
21.2706
12.7499
21.2714
12.7542
21.2761
12.7616
21.2817
6.48229
8.72176
4.4241
-2.16579
12.7526
21.2664
12.7564
21.2668
12.7818
21.2852
12.782
21.2828
6.48708
8.51455
4.09155
-0.300971
1.011
-2.90671
-0.399586
0.536428
-0.297814
1.15724
-2.90693
-0.411131
0.525807
0.469479
-1.93759
-3.07736
1.77806
2.73685
-0.793004
-3.31319
-1.79173
-3.31874
-1.77419
-3.31209
-1.7861
-3.31449
-1.78374
-3.33947
1.79462
2.7408
2.41769
0.150874
3.17134
0.52954
2.28007
0.168759
2.88901
0.198927
124.007
135.046
124.018
135.069
124
135.053
124.002
135.067
42.1029
40.8449
42.106
40.846
42.1004
40.8448
42.1013
40.8433
5.058
3.22956
2.50011
113.099
2.48553
113.09
2.29304
113.032
2.28385
113.048
205.071
190.063
205.071
190.059
205.045
190.04
205.047
190.039
43.6178
40.5441
43.6189
40.545
43.6041
40.5449
43.6036
40.5443
12.3488
3.38999
4.97105
7.02127
3.73413
6.55198
4.66632
6.83986
3.70927
6.41987
106.292
108.457
106.224
108.436
106.277
108.45
106.206
108.43
40.7024
40.8207
40.6898
40.8202
40.7022
40.8194
40.6901
40.8196
12.4285
4.42497
5.63749
-52.3196
5.65585
-52.3288
5.61784
-52.3304
5.646
-52.3249
27.9497
50.1961
27.9506
50.1958
27.9801
50.2108
27.9764
50.2116
34.8419
13.0652
4.46174
9.39108
51.0261
9.48707
51.0739
9.85288
51.0565
9.98952
51.167
89.3693
86.961
89.4124
86.9996
89.4069
87.0128
89.4448
87.0139
47.6111
14.2287
4.58606
8.64689
52.4713
8.61884
52.3352
8.77862
52.6128
8.74949
52.5837
92.0367
88.6493
91.9874
88.6424
92.0561
88.6653
92.0065
88.6649
47.6947
14.2361
4.61356
1.55764
2.21526
2.72858
2.21667
2.71975
2.21257
2.73138
2.2174
2.72196
-0.605181
2.32725
4.56111
0.0474044
1.62883
-0.611597
2.30862
4.56347
0.381077
-3.47513
2.36379
1.50319
2.05212
0.962484
-0.399185
1.0084
1.49498
2.06878
0.970039
-45.416
-51.8706
-45.8178
-51.8762
-45.4459
-51.8863
-45.83
-51.8781
-19.3412
-19.3604
-19.3374
-19.3601
-19.3465
-19.364
-19.3463
-19.3637
2.40177
2.07978
0.438769
-14.4856
0.524007
-14.4743
0.687953
-14.4693
0.675256
-14.3692
-92.6716
-91.7986
-92.6711
-91.7892
-92.6853
-91.8055
-92.6844
-91.8063
-18.6301
-19.1337
-18.6339
-19.1276
-18.6416
-19.1351