# vtk DataFile Version 3.0
Gravity effects
ASCII
DATASET UNSTRUCTURED_GRID

POINTS	1681	double
0	0	-0.1
50	0	-0.1
100	0	-0.1
150	0	-0.1
200	0	-0.1
250	0	-0.1
300	0	-0.1
350	0	-0.1
400	0	-0.1
450	0	-0.1
500	0	-0.1
550	0	-0.1
600	0	-0.1
650	0	-0.1
700	0	-0.1
750	0	-0.1
800	0	-0.1
850	0	-0.1
900	0	-0.1
950	0	-0.1
1000	0	-0.1
1050	0	-0.1
1100	0	-0.1
1150	0	-0.1
1200	0	-0.1
1250	0	-0.1
1300	0	-0.1
1350	0	-0.1
1400	0	-0.1
1450	0	-0.1
1500	0	-0.1
1550	0	-0.1
1600	0	-0.1
1650	0	-0.1
1700	0	-0.1
1750	0	-0.1
1800	0	-0.1
1850	0	-0.1
1900	0	-0.1
1950	0	-0.1
2000	0	-0.1
0	50	-0.1
50	50	-0.1
100	50	-0.1
150	50	-0.1
200	50	-0.1
250	50	-0.1
300	50	-0.1
350	50	-0.1
400	50	-0.1
450	50	-0.1
500	50	-0.1
550	50	-0.1
600	50	-0.1
650	50	-0.1
700	50	-0.1
750	50	-0.1
800	50	-0.1
850	50	-0.1
900	50	-0.1
950	50	-0.1
1000	50	-0.1
1050	50	-0.1
1100	50	-0.1
1150	50	-0.1
1200	50	-0.1
1250	50	-0.1
1300	50	-0.1
1350	50	-0.1
1400	50	-0.1
1450	50	-0.1
1500	50	-0.1
1550	50	-0.1
1600	50	-0.1
1650	50	-0.1
1700	50	-0.1
1750	50	-0.1
1800	50	-0.1
1850	50	-0.1
1900	50	-0.1
1950	50	-0.1
2000	50	-0.1
0	100	-0.1
50	100	-0.1
100	100	-0.1
150	100	-0.1
200	100	-0.1
250	100	-0.1
300	100	-0.1
350	100	-0.1
400	100	-0.1
450	100	-0.1
500	100	-0.1
550	100	-0.1
600	100	-0.1
650	100	-0.1
700	100	-0.1
750	100	-0.1
800	100	-0.1
850	100	-0.1
900	100	-0.1
950	100	-0.1
1000	100	-0.1
1050	100	-0.1
1100	100	-0.1
1150	100	-0.1
1200	100	-0.1
1250	100	-0.1
1300	100	-0.1
1350	100	-0.1
1400	100	-0.1
1450	100	-0.1
1500	100	-0.1
1550	100	-0.1
1600	100	-0.1
1650	100	-0.1
1700	100	-0.1
1750	100	-0.1
1800	100	-0.1
1850	100	-0.1
1900	100	-0.1
1950	100	-0.1
2000	100	-0.1
0	150	-0.1
50	150	-0.1
100	150	-0.1
150	150	-0.1
200	150	-0.1
250	150	-0.1
300	150	-0.1
350	150	-0.1
400	150	-0.1
450	150	-0.1
500	150	-0.1
550	150	-0.1
600	150	-0.1
650	150	-0.1
700	150	-0.1
750	150	-0.1
800	150	-0.1
850	150	-0.1
900	150	-0.1
950	150	-0.1
1000	150	-0.1
1050	150	-0.1
1100	150	-0.1
1150	150	-0.1
1200	150	-0.1
1250	150	-0.1
1300	150	-0.1
1350	150	-0.1
1400	150	-0.1
1450	150	-0.1
1500	150	-0.1
1550	150	-0.1
1600	150	-0.1
1650	150	-0.1
1700	150	-0.1
1750	150	-0.1
1800	150	-0.1
1850	150	-0.1
1900	150	-0.1
1950	150	-0.1
2000	150	-0.1
0	200	-0.1
50	200	-0.1
100	200	-0.1
150	200	-0.1
200	200	-0.1
250	200	-0.1
300	200	-0.1
350	200	-0.1
400	200	-0.1
450	200	-0.1
500	200	-0.1
550	200	-0.1
600	200	-0.1
650	200	-0.1
700	200	-0.1
750	200	-0.1
800	200	-0.1
850	200	-0.1
900	200	-0.1
950	200	-0.1
1000	200	-0.1
1050	200	-0.1
1100	200	-0.1
1150	200	-0.1
1200	200	-0.1
1250	200	-0.1
1300	200	-0.1
1350	200	-0.1
1400	200	-0.1
1450	200	-0.1
1500	200	-0.1
1550	200	-0.1
1600	200	-0.1
1650	200	-0.1
1700	200	-0.1
1750	200	-0.1
1800	200	-0.1
1850	200	-0.1
1900	200	-0.1
1950	200	-0.1
2000	200	-0.1
0	250	-0.1
50	250	-0.1
100	250	-0.1
150	250	-0.1
200	250	-0.1
250	250	-0.1
300	250	-0.1
350	250	-0.1
400	250	-0.1
450	250	-0.1
500	250	-0.1
550	250	-0.1
600	250	-0.1
650	250	-0.1
700	250	-0.1
750	250	-0.1
800	250	-0.1
850	250	-0.1
900	250	-0.1
950	250	-0.1
1000	250	-0.1
1050	250	-0.1
1100	250	-0.1
1150	250	-0.1
1200	250	-0.1
1250	250	-0.1
1300	250	-0.1
1350	250	-0.1
1400	250	-0.1
1450	250	-0.1
1500	250	-0.1
1550	250	-0.1
1600	250	-0.1
1650	250	-0.1
1700	250	-0.1
1750	250	-0.1
1800	250	-0.1
1850	250	-0.1
1900	250	-0.1
1950	250	-0.1
2000	250	-0.1
0	300	-0.1
50	300	-0.1
100	300	-0.1
150	300	-0.1
200	300	-0.1
250	300	-0.1
300	300	-0.1
350	300	-0.1
400	300	-0.1
450	300	-0.1
500	300	-0.1
550	300	-0.1
600	300	-0.1
650	300	-0.1
700	300	-0.1
750	300	-0.1
800	300	-0.1
850	300	-0.1
900	300	-0.1
950	300	-0.1
1000	300	-0.1
1050	300	-0.1
1100	300	-0.1
1150	300	-0.1
1200	300	-0.1
1250	300	-0.1
1300	300	-0.1
1350	300	-0.1
1400	300	-0.1
1450	300	-0.1
1500	300	-0.1
1550	300	-0.1
1600	300	-0.1
1650	300	-0.1
1700	300	-0.1
1750	300	-0.1
1800	300	-0.1
1850	300	-0.1
1900	300	-0.1
1950	300	-0.1
2000	300	-0.1
0	350	-0.1
50	350	-0.1
100	350	-0.1
150	350	-0.1
200	350	-0.1
250	350	-0.1
300	350	-0.1
350	350	-0.1
400	350	-0.1
450	350	-0.1
500	350	-0.1
550	350	-0.1
600	350	-0.1
650	350	-0.1
700	350	-0.1
750	350	-0.1
800	350	-0.1
850	350	-0.1
900	350	-0.1
950	350	-0.1
1000	350	-0.1
1050	350	-0.1
1100	350	-0.1
1150	350	-0.1
1200	350	-0.1
1250	350	-0.1
1300	350	-0.1
1350	350	-0.1
1400	350	-0.1
1450	350	-0.1
1500	350	-0.1
1550	350	-0.1
1600	350	-0.1
1650	350	-0.1
1700	350	-0.1
1750	350	-0.1
1800	350	-0.1
1850	350	-0.1
1900	350	-0.1
1950	350	-0.1
2000	350	-0.1
0	400	-0.1
50	400	-0.1
100	400	-0.1
150	400	-0.1
200	400	-0.1
250	400	-0.1
300	400	-0.1
350	400	-0.1
400	400	-0.1
450	400	-0.1
500	400	-0.1
550	400	-0.1
600	400	-0.1
650	400	-0.1
700	400	-0.1
750	400	-0.1
800	400	-0.1
850	400	-0.1
900	400	-0.1
950	400	-0.1
1000	400	-0.1
1050	400	-0.1
1100	400	-0.1
1150	400	-0.1
1200	400	-0.1
1250	400	-0.1
1300	400	-0.1
1350	400	-0.1
1400	400	-0.1
1450	400	-0.1
1500	400	-0.1
1550	400	-0.1
1600	400	-0.1
1650	400	-0.1
1700	400	-0.1
1750	400	-0.1
1800	400	-0.1
1850	400	-0.1
1900	400	-0.1
1950	400	-0.1
2000	400	-0.1
0	450	-0.1
50	450	-0.1
100	450	-0.1
150	450	-0.1
200	450	-0.1
250	450	-0.1
300	450	-0.1
350	450	-0.1
400	450	-0.1
450	450	-0.1
500	450	-0.1
550	450	-0.1
600	450	-0.1
650	450	-0.1
700	450	-0.1
750	450	-0.1
800	450	-0.1
850	450	-0.1
900	450	-0.1
950	450	-0.1
1000	450	-0.1
1050	450	-0.1
1100	450	-0.1
1150	450	-0.1
1200	450	-0.1
1250	450	-0.1
1300	450	-0.1
1350	450	-0.1
1400	450	-0.1
1450	450	-0.1
1500	450	-0.1
1550	450	-0.1
1600	450	-0.1
1650	450	-0.1
1700	450	-0.1
1750	450	-0.1
1800	450	-0.1
1850	450	-0.1
1900	450	-0.1
1950	450	-0.1
2000	450	-0.1
0	500	-0.1
50	500	-0.1
100	500	-0.1
150	500	-0.1
200	500	-0.1
250	500	-0.1
300	500	-0.1
350	500	-0.1
400	500	-0.1
450	500	-0.1
500	500	-0.1
550	500	-0.1
600	500	-0.1
650	500	-0.1
700	500	-0.1
750	500	-0.1
800	500	-0.1
850	500	-0.1
900	500	-0.1
950	500	-0.1
1000	500	-0.1
1050	500	-0.1
1100	500	-0.1
1150	500	-0.1
1200	500	-0.1
1250	500	-0.1
1300	500	-0.1
1350	500	-0.1
1400	500	-0.1
1450	500	-0.1
1500	500	-0.1
1550	500	-0.1
1600	500	-0.1
1650	500	-0.1
1700	500	-0.1
1750	500	-0.1
1800	500	-0.1
1850	500	-0.1
1900	500	-0.1
1950	500	-0.1
2000	500	-0.1
0	550	-0.1
50	550	-0.1
100	550	-0.1
150	550	-0.1
200	550	-0.1
250	550	-0.1
300	550	-0.1
350	550	-0.1
400	550	-0.1
450	550	-0.1
500	550	-0.1
550	550	-0.1
600	550	-0.1
650	550	-0.1
700	550	-0.1
750	550	-0.1
800	550	-0.1
850	550	-0.1
900	550	-0.1
950	550	-0.1
1000	550	-0.1
1050	550	-0.1
1100	550	-0.1
1150	550	-0.1
1200	550	-0.1
1250	550	-0.1
1300	550	-0.1
1350	550	-0.1
1400	550	-0.1
1450	550	-0.1
1500	550	-0.1
1550	550	-0.1
1600	550	-0.1
1650	550	-0.1
1700	550	-0.1
1750	550	-0.1
1800	550	-0.1
1850	550	-0.1
1900	550	-0.1
1950	550	-0.1
2000	550	-0.1
0	600	-0.1
50	600	-0.1
100	600	-0.1
150	600	-0.1
200	600	-0.1
250	600	-0.1
300	600	-0.1
350	600	-0.1
400	600	-0.1
450	600	-0.1
500	600	-0.1
550	600	-0.1
600	600	-0.1
650	600	-0.1
700	600	-0.1
750	600	-0.1
800	600	-0.1
850	600	-0.1
900	600	-0.1
950	600	-0.1
1000	600	-0.1
1050	600	-0.1
1100	600	-0.1
1150	600	-0.1
1200	600	-0.1
1250	600	-0.1
1300	600	-0.1
1350	600	-0.1
1400	600	-0.1
1450	600	-0.1
1500	600	-0.1
1550	600	-0.1
1600	600	-0.1
1650	600	-0.1
1700	600	-0.1
1750	600	-0.1
1800	600	-0.1
1850	600	-0.1
1900	600	-0.1
1950	600	-0.1
2000	600	-0.1
0	650	-0.1
50	650	-0.1
100	650	-0.1
150	650	-0.1
200	650	-0.1
250	650	-0.1
300	650	-0.1
350	650	-0.1
400	650	-0.1
450	650	-0.1
500	650	-0.1
550	650	-0.1
600	650	-0.1
650	650	-0.1
700	650	-0.1
750	650	-0.1
800	650	-0.1
850	650	-0.1
900	650	-0.1
950	650	-0.1
1000	650	-0.1
1050	650	-0.1
1100	650	-0.1
1150	650	-0.1
1200	650	-0.1
1250	650	-0.1
1300	650	-0.1
1350	650	-0.1
1400	650	-0.1
1450	650	-0.1
1500	650	-0.1
1550	650	-0.1
1600	650	-0.1
1650	650	-0.1
1700	650	-0.1
1750	650	-0.1
1800	650	-0.1
1850	650	-0.1
1900	650	-0.1
1950	650	-0.1
2000	650	-0.1
0	700	-0.1
50	700	-0.1
100	700	-0.1
150	700	-0.1
200	700	-0.1
250	700	-0.1
300	700	-0.1
350	700	-0.1
400	700	-0.1
450	700	-0.1
500	700	-0.1
550	700	-0.1
600	700	-0.1
650	700	-0.1
700	700	-0.1
750	700	-0.1
800	700	-0.1
850	700	-0.1
900	700	-0.1
950	700	-0.1
1000	700	-0.1
1050	700	-0.1
1100	700	-0.1
1150	700	-0.1
1200	700	-0.1
1250	700	-0.1
1300	700	-0.1
1350	700	-0.1
1400	700	-0.1
1450	700	-0.1
1500	700	-0.1
1550	700	-0.1
1600	700	-0.1
1650	700	-0.1
1700	700	-0.1
1750	700	-0.1
1800	700	-0.1
1850	700	-0.1
1900	700	-0.1
1950	700	-0.1
2000	700	-0.1
0	750	-0.1
50	750	-0.1
100	750	-0.1
150	750	-0.1
200	750	-0.1
250	750	-0.1
300	750	-0.1
350	750	-0.1
400	750	-0.1
450	750	-0.1
500	750	-0.1
550	750	-0.1
600	750	-0.1
650	750	-0.1
700	750	-0.1
750	750	-0.1
800	750	-0.1
850	750	-0.1
900	750	-0.1
950	750	-0.1
1000	750	-0.1
1050	750	-0.1
1100	750	-0.1
1150	750	-0.1
1200	750	-0.1
1250	750	-0.1
1300	750	-0.1
1350	750	-0.1
1400	750	-0.1
1450	750	-0.1
1500	750	-0.1
1550	750	-0.1
1600	750	-0.1
1650	750	-0.1
1700	750	-0.1
1750	750	-0.1
1800	750	-0.1
1850	750	-0.1
1900	750	-0.1
1950	750	-0.1
2000	750	-0.1
0	800	-0.1
50	800	-0.1
100	800	-0.1
150	800	-0.1
200	800	-0.1
250	800	-0.1
300	800	-0.1
350	800	-0.1
400	800	-0.1
450	800	-0.1
500	800	-0.1
550	800	-0.1
600	800	-0.1
650	800	-0.1
700	800	-0.1
750	800	-0.1
800	800	-0.1
850	800	-0.1
900	800	-0.1
950	800	-0.1
1000	800	-0.1
1050	800	-0.1
1100	800	-0.1
1150	800	-0.1
1200	800	-0.1
1250	800	-0.1
1300	800	-0.1
1350	800	-0.1
1400	800	-0.1
1450	800	-0.1
1500	800	-0.1
1550	800	-0.1
1600	800	-0.1
1650	800	-0.1
1700	800	-0.1
1750	800	-0.1
1800	800	-0.1
1850	800	-0.1
1900	800	-0.1
1950	800	-0.1
2000	800	-0.1
0	850	-0.1
50	850	-0.1
100	850	-0.1
150	850	-0.1
200	850	-0.1
250	850	-0.1
300	850	-0.1
350	850	-0.1
400	850	-0.1
450	850	-0.1
500	850	-0.1
550	850	-0.1
600	850	-0.1
650	850	-0.1
700	850	-0.1
750	850	-0.1
800	850	-0.1
850	850	-0.1
900	850	-0.1
950	850	-0.1
1000	850	-0.1
1050	850	-0.1
1100	850	-0.1
1150	850	-0.1
1200	850	-0.1
1250	850	-0.1
1300	850	-0.1
1350	850	-0.1
1400	850	-0.1
1450	850	-0.1
1500	850	-0.1
1550	850	-0.1
1600	850	-0.1
1650	850	-0.1
1700	850	-0.1
1750	850	-0.1
1800	850	-0.1
1850	850	-0.1
1900	850	-0.1
1950	850	-0.1
2000	850	-0.1
0	900	-0.1
50	900	-0.1
100	900	-0.1
150	900	-0.1
200	900	-0.1
250	900	-0.1
300	900	-0.1
350	900	-0.1
[...]
CELL_DATA	1681
SCALARS T_zz double 1
LOOKUP_TABLE table0
-0.452241
-0.451454
-0.49319
-0.517045
-0.543946
-0.563584
-0.568185
-0.567445
-0.578866
-0.579975
-0.573589
-0.563904
-0.537362
-0.501915
-0.474206
-0.464901
-0.447708
-0.420049
-0.388269
-0.358205
-0.342384
-0.324477
-0.289375
-0.269315
-0.246922
-0.206456
-0.172628
-0.140177
-0.106426
-0.0692482
-0.0370125
-0.00336868
0.0255858
0.0496937
0.0716194
0.0842218
0.0914163
0.0969395
0.0991848
0.094839
0.0868838
-0.486786
-0.499707
-0.545749
-0.555713
-0.572509
-0.596793
-0.607275
-0.58769
-0.602762
-0.588646
-0.558228
-0.534868
-0.504634
-0.463474
-0.462861
-0.438546
-0.400725
-0.394593
-0.382383
-0.369989
-0.346669
-0.345895
-0.33302
-0.330326
-0.315706
-0.28749
-0.265838
-0.229568
-0.18524
-0.140709
-0.0984881
-0.0526
-0.00997895
0.0258358
0.0584201
0.0758395
0.0932003
0.101661
0.107972
0.102937
0.0948861
-0.508313
-0.548179
-0.576164
-0.565745
-0.599218
-0.609287
-0.637979
-0.619733
-0.615147
-0.573629
-0.540348
-0.508131
-0.445826
-0.419643
-0.363645
-0.351533
-0.311633
-0.317186
-0.316179
-0.333025
-0.353414
-0.37217
-0.399814
-0.415697
-0.415831
-0.430936
-0.409158
-0.363213
-0.319316
-0.276544
-0.20543
-0.150965
-0.084204
-0.0259924
0.0213141
0.0585186
0.0844638
0.100608
0.105779
0.107572
0.104535
-0.533709
-0.577724
-0.625165
-0.644668
-0.667283
-0.636791
-0.62917
-0.630421
-0.592217
-0.569986
-0.467366
-0.399542
-0.310015
-0.244492
-0.180958
-0.144932
-0.138825
-0.156007
-0.193883
-0.250189
-0.34089
-0.426641
-0.503005
-0.556334
-0.626101
-0.647612
-0.645291
-0.634261
-0.580248
-0.505141
-0.420441
-0.31003
-0.213382
-0.121518
-0.0470845
0.014082
0.0567386
0.0881092
0.103938
0.10749
0.11405
-0.611338
-0.63274
-0.64292
-0.686192
-0.685595
-0.700589
-0.65748
-0.600689
-0.541262
-0.454003
-0.305218
-0.176773
-0.0361516
0.0891657
0.183006
0.223511
0.219528
0.145664
0.0396098
-0.104214
-0.275163
-0.433722
-0.636288
-0.76785
-0.918018
-1.0522
-1.07174
-1.08612
-0.981472
-0.927532
-0.762857
-0.597629
-0.434022
-0.275507
-0.161399
-0.0594534
0.0107984
0.0580024
0.0906589
0.102636
0.106441
-0.610805
-0.651933
-0.676142
-0.670064
-0.680461
-0.675052
-0.639738
-0.52809
-0.403305
-0.237781
-0.0191825
0.229026
0.470115
0.65862
0.812138
0.880272
0.855589
0.707035
0.470711
0.183181
-0.149034
-0.513193
-0.821439
-1.15066
-1.40086
-1.67378
-1.81531
-1.81156
-1.73927
-1.54789
-1.31979
-1.06894
-0.773366
-0.554778
-0.343637
-0.186209
-0.0645152
0.0141079
0.0650282
0.0912723
0.103274
-0.64518
-0.669131
-0.672413
-0.705224
-0.71051
-0.674627
-0.561227
-0.411657
-0.18396
0.0955126
0.468174
0.867534
1.3084
1.68105
1.87285
2.00408
1.93303
1.62792
1.20223
0.714358
0.0798758
-0.525632
-1.16372
-1.70219
-2.29776
-2.7769
-2.9957
-3.06905
-2.98618
-2.68194
-2.31296
-1.81481
-1.35599
-0.940471
-0.591569
-0.367029
-0.180435
-0.0554648
0.0231464
0.0690012
0.0898004
-0.656515
-0.699191
-0.692806
-0.699011
-0.69572
-0.615947
-0.476545
-0.229631
0.122104
0.610975
1.24333
1.9221
2.68158
3.42532
3.78199
3.96366
3.77623
3.18131
2.47615
1.454
0.485631
-0.591698
-1.67254
-2.65369
-3.59744
-4.28948
-4.82437
-4.95564
-4.8794
-4.28789
-3.64719
-2.92162
-2.18009
-1.50268
-0.997561
-0.603367
-0.34179
-0.148223
-0.0342605
0.034953
0.0687545
-0.699904
-0.738658
-0.750522
-0.711507
-0.67439
-0.566201
-0.331959
0.0283153
0.587745
1.32951
2.38572
3.47377
4.87672
6.11637
6.91968
7.1172
6.46675
5.8703
4.29942
2.83123
1.10541
-0.634532
-2.40676
-4.13779
-5.56982
-6.99043
-7.79701
-8.07825
-7.97831
-7.22484
-5.9215
-4.59155
-3.41263
-2.2642
-1.49806
-0.921673
-0.526256
-0.264698
-0.111456
-0.00846241
0.0431693
-0.722227
-0.741188
-0.767615
-0.707275
-0.641471
-0.460601
-0.154718
0.352953
1.13741
2.29484
3.94805
5.91554
7.82245
9.49033
11.6039
11.5559
11.1815
9.83225
7.42807
4.67752
1.96289
-0.703255
-3.49212
-6.06536
-8.84911
-10.6771
-12.308
-12.351
-12.1352
-10.9377
-9.167
-7.15818
-5.05078
-3.38513
-2.133
-1.29539
-0.772291
-0.410167
-0.193447
-0.0608913
0.0121736
-0.721952
-0.784501
-0.763613
-0.738416
-0.602293
-0.372852
0.0418489
0.743986
1.8406
3.41151
5.63428
8.53995
12.2176
14.6901
17.3822
17.4276
16.1358
14.3829
11.174
7.0907
3.16433
-0.79478
-4.59816
-8.90678
-12.8375
-16.0846
-18.1373
-19.2066
-18.1489
-16.1335
-13.1681
-9.92505
-6.9757
-4.67057
-2.87729
-1.7637
-1.03112
-0.567694
-0.292309
-0.123087
-0.0262961
-0.746244
-0.795743
-0.793051
-0.710936
-0.566564
-0.278232
0.232252
1.14133
2.49371
4.92887
7.85829
11.5985
16.0365
21.4208
24.3174
24.5104
24.4974
19.97
15.4446
9.84607
4.447
-0.819369
-6.19633
-11.6114
-17.3074
-22.4492
-25.0018
-26.6897
-26.4265
-22.7435
-17.4437
-13.0008
-9.57705
-5.79944
-3.75768
-2.21737
-1.3042
-0.749214
-0.375269
-0.181028
-0.0689734
-0.80383
-0.806559
-0.791844
-0.722632
-0.542859
-0.2059
0.389359
1.38978
3.18055
5.71609
9.96377
14.7016
20.5593
26.1278
30.7012
32.3882
29.4114
26.2066
19.315
12.4092
5.66566
-0.903893
-7.42407
-14.4732
-21.1489
-27.3404
-32.5054
-33.2028
-32.6927
-27.5284
-22.281
-16.9641
-11.134
-6.97691
-4.34123
-2.56408
-1.56644
-0.897717
-0.487689
-0.245245
-0.110565
-0.798202
-0.825537
-0.801062
-0.723934
-0.5305
-0.16812
0.49235
1.65617
3.5067
6.76813
10.9812
16.529
24.0233
30.319
34.1485
36.3698
34.9741
29.9984
22.3859
14.7744
6.51656
-0.968537
-8.1667
-16.5589
-24.1714
-31.5264
-35.828
-39.1112
-36.9604
-31.9627
-25.4621
-18.2956
-12.5175
-7.85739
-4.99843
-2.8957
-1.656
-0.976236
-0.583713
-0.296019
-0.160111
-0.807257
-0.816219
-0.792278
-0.720162
-0.541426
-0.169049
0.487499
1.64441
3.49875
6.67263
11.5616
17.6749
24.6365
31.1836
36.5058
36.2626
36.2542
30.9626
22.7466
15.2052
6.71719
-1.01294
-8.79545
-16.4444
-25.3618
-32.3293
-38.4121
-38.9561
-37.5798
-32.5598
-26.2697
-19.7667
-12.9406
-8.35442
-4.86577
-2.92618
-1.87913
-1.09099
-0.614979
-0.344626
-0.197922
-0.827499
-0.856037
-0.859771
-0.772643
-0.563039
-0.22895
0.434333
1.54547
3.4238
6.57334
10.387
16.7754
23.6828
30.4403
34.2541
35.0345
34.6762
29.1207
21.6532
14.1157
6.26764
-1.01637
-8.40149
-16.3285
-25.4155
-32.21
-35.8626
-37.6744
-36.9408
-31.3705
-24.7258
-19.159
-12.4485
-7.87523
-4.91787
-3.07329
-1.77525
-1.16245
-0.636321
-0.358835
-0.23072
-0.858332
-0.890715
-0.873912
-0.802486
-0.64232
-0.322108
0.277639
1.31246
2.97784
5.58522
9.58711
14.4006
20.5298
26.2966
29.1076
32.7281
30.2827
26.3457
19.5087
12.3455
5.61348
-1.00631
-7.36174
-14.6037
-21.5018
-28.1716
-30.9402
-33.1535
-31.4759
-27.7024
-22.9383
-16.9757
-11.063
-7.28054
-4.71857
-2.73319
-1.73229
-1.085
-0.670814
-0.405155
-0.254152
-0.825208
-0.890527
-0.877479
-0.858866
-0.749461
-0.44502
0.052176
0.899368
2.35935
4.60937
7.69016
11.5686
16.2371
20.6569
24.5509
24.6632
23.9103
20.3333
15.7802
9.75886
4.44972
-0.850732
-6.06274
-11.3771
-16.5828
-21.6701
-25.3954
-27.4903
-25.8758
-22.3818
-18.0255
-13.5396
-9.2417
-6.17766
-3.93184
-2.52379
-1.53823
-1.01989
-0.659119
-0.409737
-0.274739
-0.87829
-0.904812
-0.933763
-0.909823
-0.795509
-0.578279
-0.195394
0.460175
1.58006
3.09079
5.45987
8.46326
11.5856
15.2603
16.6904
17.4202
16.8511
14.0774
11.4817
7.18304
3.2743
-0.64805
-4.48083
-8.4834
-12.491
-15.7006
-18.0225
-19.1711
-18.2601
-16.4067
-13.3979
-10.3908
-6.88084
-5.00883
-3.18038
-2.08189
-1.36388
-0.913279
-0.630269
-0.433494
-0.323802
-0.846152
-0.904576
-0.952398
-0.939904
-0.879889
-0.740761
-0.438455
0.0321774
0.836332
1.92593
3.48622
5.42746
7.72873
9.14473
10.8693
11.3318
10.5546
9.16528
7.43297
4.89997
2.41163
-0.172055
-2.71776
-5.51153
-7.91756
-9.96544
-11.3795
-12.2091
-12.0843
-10.4091
-8.79646
-6.7038
-4.97685
-3.64075
-2.51399
-1.73992
-1.1515
-0.813492
-0.586273
-0.431325
-0.334234
-0.862668
-0.929983
-0.978769
-0.968162
-0.92938
-0.882576
-0.658422
-0.349285
0.167748
0.913548
1.90481
3.07026
4.30595
5.79102
6.61252
7.05611
6.80233
6.01478
5.09674
3.66092
2.23776
0.672961
-0.896809
-2.56333
-3.9713
-5.4872
-6.51233
-7.0327
-6.83429
-6.29962
-5.45874
-4.09843
-3.18198
-2.34169
-1.7117
-1.27835
-0.925462
-0.69383
-0.552657
-0.420908
-0.375992
-0.883335
-0.944286
-0.9711
-1.02809
-1.0419
-0.977378
-0.906836
-0.657209
-0.331647
0.134229
0.750205
1.49835
2.29788
2.94423
3.74318
4.09723
4.26259
4.18699
3.93001
3.46345
2.75371
1.98871
1.25543
0.368888
-0.48113
-1.3537
-1.98954
-2.31533
-2.5629
-2.54649
-2.33557
-1.9681
-1.64734
-1.32196
-1.102
-0.861485
-0.711914
-0.601703
-0.480174
-0.455222
-0.380732
-0.869416
-0.914764
-0.948701
-1.00529
-1.05941
-1.03279
-1.001
-0.893196
-0.700249
-0.423074
-0.0302434
0.436934
0.949243
1.49124
2.04813
2.63681
3.07186
3.51375
3.99117
4.17019
4.47928
4.33018
4.03546
3.79842
3.27171
2.83309
2.28655
1.89415
1.40401
0.900487
0.486257
0.141941
-0.131854
-0.32392
-0.426863
-0.517966
-0.498623
-0.506612
-0.467474
-0.433933
-0.399679
-0.873227
-0.915429
-0.993694
-1.02792
-1.10467
-1.11778
-1.10087
-1.01641
-0.924692
-0.769137
-0.522562
-0.196261
0.220443
0.725866
1.31712
2.0883
2.98088
4.0376
5.22874
6.12974
7.27384
7.84354
8.17253
7.77412
8.09485
7.82191
7.00109
6.58193
5.53841
4.52255
3.48412
2.38426
1.41092
0.679133
0.190746
-0.129031
-0.298663
-0.404727
-0.452838
-0.444897
-0.427724
-0.849417
-0.90398
-0.99998
-1.03337
-1.0793
-1.15202
-1.17828
-1.16863
-1.09457
-0.993092
-0.832566
-0.546411
-0.162978
0.384473
1.14169
2.24738
3.79283
5.51498
7.52983
9.57381
11.3248
12.7305
13.7967
13.974
13.8886
13.8991
13.118
12.2263
10.9975
9.24798
6.85999
4.66616
3.13723
1.72671
0.852089
0.242134
-0.117598
-0.313852
-0.395506
-0.431322
-0.462331
-0.837732
-0.892578
-0.967327
-1.06268
-1.11167
-1.15509
-1.21754
-1.19395
-1.18506
-1.08303
-0.977968
-0.710535
-0.303818
0.334882
1.31218
2.93012
5.05473
7.59441
11.6357
14.3602
17.2855
19.4884
20.3554
20.8387
20.8759
21.6941
20.6685
19.0148
16.692
14.1414
10.99
7.68613
4.91587
2.74507
1.43054
0.603787
0.0652465
-0.228339
-0.39273
-0.445993
-0.486384
-0.82305
-0.91614
-0.954404
-0.99433
-1.10414
-1.12564
-1.18977
-1.22278
-1.24579
-1.14067
-1.02842
-0.765327
-0.337753
0.407574
1.60663
3.6641
6.57991
10.1533
14.1408
19.8983
23.2131
26.5806
27.386
28.5287
28.9418
28.2151
27.4943
25.948
23.449
19.3448
14.919
10.3361
6.87832
3.9131
2.0534
0.879971
0.203611
-0.171421
-0.372855
-0.472331
-0.498382
-0.784589
-0.897039
-0.93891
-0.995842
-1.05691
-1.13838
-1.18962
-1.24013
-1.20598
-1.18857
-1.05024
-0.802294
-0.333311
0.515292
1.9253
4.09042
7.76665
12.1901
18.254
22.3902
27.6839
31.7444
33.4945
35.0717
35.3634
33.5166
33.4306
32.6318
28.0397
23.9133
17.5853
12.868
7.78526
4.55021
2.39447
1.10179
0.294562
-0.142055
-0.361668
-0.47211
-0.530468
-0.784042
-0.810154
-0.899867
-0.980206
-1.04414
-1.15327
-1.13463
-1.21384
-1.22774
-1.15566
-1.02674
-0.794374
-0.310079
0.566451
2.00394
4.15404
7.87693
13.6357
19.2548
25.1274
29.1955
33.6345
34.8614
36.98
37.786
36.8192
36.6755
33.8932
30.682
25.1766
18.4093
13.1302
8.34949
4.87327
2.59731
1.14212
0.311524
-0.150198
-0.387739
-0.508913
-0.534028
-0.766719
-0.790698
-0.873497
-0.960056
-1.0132
-1.07057
-1.09368
-1.17246
-1.24922
-1.15547
-1.08119
-0.796257
-0.34915
0.455786
1.76283
3.98061
7.92997
12.0365
18.301
23.4688
28.6128
31.8895
33.5554
33.9777
35.6501
36.437
33.9648
32.4431
27.7511
23.2626
18.5905
12.7031
8.37213
4.44055
2.4071
1.03955
0.247949
-0.194306
-0.426959
-0.536905
-0.555636
-0.739967
-0.790252
-0.85016
-0.895788
-0.961127
-1.04954
-1.09853
-1.12341
-1.19259
-1.15006
-1.08718
-0.825767
-0.455338
0.26442
1.49136
3.29846
6.28291
9.89653
14.7995
19.5938
23.8033
26.0728
28.7816
28.0628
28.9743
29.1009
27.9869
26.181
23.9046
19.8756
15.2689
10.4672
6.82712
3.775
2.04138
0.803617
0.125619
-0.268497
-0.481147
-0.56093
-0.59352
-0.7346
-0.746538
-0.789751
-0.882882
-0.905233
-0.983253
-1.00576
-1.10336
-1.12487
-1.15429
-1.08767
-0.916934
-0.587341
0.00497673
0.96407
2.52118
4.5798
7.53457
11.0292
14.2569
16.9275
19.2966
20.7672
21.7503
20.6241
20.624
19.9472
18.8632
17.0956
14.5134
10.8947
7.81323
4.93966
2.82419
1.4215
0.508935
-0.0499057
-0.372285
-0.534211
-0.600709
-0.616717
-0.679127
-0.716204
-0.799299
-0.840379
-0.913445
-0.985612
-1.00022
-1.0622
-1.16614
-1.13143
-1.1097
-0.962253
-0.696935
-0.268678
0.432777
1.5254
2.88886
4.98033
7.18037
9.22785
11.2971
12.8371
14.1038
14.4862
14.5696
14.4445
14.3433
12.9908
11.4159
9.41274
7.24493
5.23077
3.40446
1.84022
0.831119
0.187106
-0.23259
-0.477949
-0.607094
-0.639421
-0.621423
-0.656436
-0.714753
-0.749265
-0.829227
-0.900584
-0.954937
-1.00121
-1.0438
-1.08318
-1.11376
-1.06879
-0.971424
-0.826554
-0.522481
-0.056521
0.677722
1.7009
2.82171
4.16336
5.55757
6.7403
7.79796
8.68479
8.70474
9.09043
9.09691
8.7576
7.75256
6.99718
5.86714
4.45006
3.12847
1.96702
1.02447
0.335238
-0.121565
-0.399431
-0.564425
-0.651832
-0.683346
-0.656028
-0.635918
-0.690412
-0.718793
-0.753382
-0.860555
-0.913731
-0.948613
-1.01692
-1.05898
-1.08573
-1.04887
-1.05141
-0.930272
-0.747078
-0.445833
0.00880006
0.596936
1.36445
2.21047
2.93631
3.58092
4.5241
4.74744
4.90745
5.10041
5.03474
4.94748
4.37922
3.88988
3.20365
2.32409
1.64523
0.965268
0.339122
-0.0836238
-0.37115
-0.562551
-0.658976
-0.697716
-0.677758
-0.655802
-0.594976
-0.622259
-0.700859
-0.763305
-0.800171
-0.862477
-0.903567
-0.959945
-1.01769
-1.04541
-1.02335
-1.0419
-1.00804
-0.857794
-0.709822
-0.446876
-0.0969805
0.334818
0.770803
1.27361
1.70499
2.06346
2.28773
2.51462
2.56858
2.55672
2.41244
2.15177
1.84563
1.47267
1.04633
0.576729
0.176245
-0.154732
-0.401356
-0.580877
-0.66502
-0.692661
-0.698365
-0.697473
-0.694218
-0.568124
-0.611593
-0.666309
-0.705483
-0.772565
-0.831693
-0.868634
-0.940253
-0.973668
-0.988455
-1.07752
-1.04112
-1.02798
-0.944279
-0.881013
-0.759933
-0.543508
-0.326063
-0.0560644
0.213161
0.454387
0.650031
0.830134
0.900614
0.959449
0.951653
0.876641
0.781903
0.579687
0.363675
0.135463
-0.0955512
-0.307661
-0.482171
-0.627473
-0.711592
-0.718932
-0.746153
-0.737691
-0.680799
-0.68267
-0.539034
-0.59354
-0.626524
-0.663738
-0.718249
-0.775381
-0.841809
-0.885904
-0.918366
-0.921814
-1.0056
-1.0393
-1.02581
-1.05719
-0.975176
-0.941441
-0.802271
-0.719848
-0.56436
-0.416989
-0.280008
-0.169514
-0.0785704
-0.016717
0.0145687
0.0139901
-0.0181996
-0.0825559
-0.170783
-0.270677
-0.390284
-0.519294
-0.598719
-0.714981
-0.750483
-0.769357
-0.74455
-0.751614
-0.717862
-0.708084
-0.652663
-0.513716
-0.572289
-0.606953
-0.632893
-0.68456
-0.734926
-0.766553
-0.85778
-0.895102
-0.937998
-0.992377
-1.01466
-1.03452
-1.06359
-1.0336
-0.997666
-0.927799
-0.91636
-0.858485
-0.786094
-0.689153
-0.633208
-0.584068
-0.569894
-0.532016
-0.531812
-0.543044
-0.564145
-0.594067
-0.643924
-0.672134
-0.742906
-0.788994
-0.788446
-0.797694
-0.780058
-0.786099
-0.759883
-0.723653
-0.685451
-0.61915
-0.491174
-0.500718
-0.565077
-0.599258
-0.657727
-0.683985
-0.756797
-0.792564
-0.838279
-0.872977
-0.951068
-0.976026
-0.988337
-1.01085
-1.00628
-1.07233
-0.996485
-1.03
-0.970768
-0.943578
-0.901719
-0.868089
-0.842955
-0.852129
-0.862164
-0.852994
-0.827608
-0.834125
-0.82736
-0.853626
-0.874801
-0.888806
-0.888557
-0.85154
-0.866687
-0.803466
-0.751349
-0.752147
-0.706559
-0.666258
-0.613864
-0.474162
-0.510837
-0.535705
-0.584717
-0.631611
-0.661733
-0.692306
-0.736202
-0.76354
-0.842148
-0.878635
-0.901306
-0.943463
-1.00051
-1.01656
-1.04995
-1.05798
-1.04704
-1.04375
-1.03606
-1.01519
-1.01756
-1.00522
-0.985337
-0.963051
-0.986266
-0.93537
-0.965464
-0.905132
-0.914238
-0.920647
-0.89622
-0.906966
-0.876466
-0.815685
-0.786839
-0.765623
-0.732462
-0.691373
-0.641101
-0.580433

POINT_DATA	1681
SCALARS T_zz double 1
LOOKUP_TABLE table0
-0.452241
-0.451454
-0.49319
-0.517045
-0.543946
-0.563584
-0.568185
-0.567445
-0.578866
-0.579975
-0.573589
-0.563904
-0.537362
-0.501915
-0.474206
-0.464901
-0.447708
-0.420049
-0.388269
-0.358205
-0.342384
-0.324477
-0.289375
-0.269315
-0.246922
-0.206456
-0.172628
-0.140177
-0.106426
-0.0692482
-0.0370125
-0.00336868
0.0255858
0.0496937
0.0716194
0.0842218
0.0914163
0.0969395
0.0991848
0.094839
0.0868838
-0.486786
-0.499707
-0.545749
-0.555713
-0.572509
-0.596793
-0.607275
-0.58769
-0.602762
-0.588646
-0.558228
-0.534868
-0.504634
-0.463474
-0.462861
-0.438546
-0.400725
-0.394593
-0.382383
-0.369989
-0.346669
-0.345895
-0.33302
-0.330326
-0.315706
-0.28749
-0.265838
-0.229568
-0.18524
-0.140709
-0.0984881
-0.0526
-0.00997895
0.0258358
0.0584201
0.0758395
0.0932003
0.101661
0.107972
0.102937
0.0948861
-0.508313
-0.548179
-0.576164
-0.565745
-0.599218
-0.609287
-0.637979
-0.619733
-0.615147
-0.573629
-0.540348
-0.508131
-0.445826
-0.419643
-0.363645
-0.351533
-0.311633
-0.317186
-0.316179
-0.333025
-0.353414
-0.37217
-0.399814
-0.415697
-0.415831
-0.430936
-0.409158
-0.363213
-0.319316
-0.276544
-0.20543
-0.150965
-0.084204
-0.0259924
0.0213141
0.0585186
0.0844638
0.100608
0.105779
0.107572
0.104535
-0.533709
-0.577724
-0.625165
-0.644668
-0.667283
-0.636791
-0.62917
-0.630421
-0.592217
-0.569986
-0.467366
-0.399542
-0.310015
-0.244492
-0.180958
-0.144932
-0.138825
-0.156007
-0.193883
-0.250189
-0.34089
-0.426641
-0.503005
-0.556334
-0.626101
-0.647612
-0.645291
-0.634261
-0.580248
-0.505141
-0.420441
-0.31003
-0.213382
-0.121518
-0.0470845
0.014082
0.0567386
0.0881092
0.103938
0.10749
0.11405
-0.611338
-0.63274
-0.64292
-0.686192
-0.685595
-0.700589
-0.65748
-0.600689
-0.541262
-0.454003
-0.305218
-0.176773
-0.0361516
0.0891657
0.183006
0.223511
0.219528
0.145664
0.0396098
-0.104214
-0.275163
-0.433722
-0.636288
-0.76785
-0.918018
-1.0522
-1.07174
-1.08612
-0.981472
-0.927532
-0.762857
-0.597629
-0.434022
-0.275507
-0.161399
-0.0594534
0.0107984
0.0580024
0.0906589
0.102636
0.106441
-0.610805
-0.651933
-0.676142
-0.670064
-0.680461
-0.675052
-0.639738
-0.52809
-0.403305
-0.237781
-0.0191825
0.229026
0.470115
0.65862
0.812138
0.880272
0.855589
0.707035
0.470711
0.183181
-0.149034
-0.513193
-0.821439
-1.15066
-1.40086
-1.67378
-1.81531
-1.81156
-1.73927
-1.54789
-1.31979
-1.06894
-0.773366
-0.554778
-0.343637
-0.186209
-0.0645152
0.0141079
0.0650282
0.0912723
0.103274
-0.64518
-0.669131
-0.672413
-0.705224
-0.71051
-0.674627
-0.561227
-0.411657
-0.18396
0.0955126
0.468174
0.867534
1.3084
1.68105
1.87285
2.00408
1.93303
1.62792
1.20223
0.714358
0.0798758
-0.525632
-1.16372
-1.70219
-2.29776
-2.7769
-2.9957
-3.06905
-2.98618
-2.68194
-2.31296
-1.81481
-1.35599
-0.940471
-0.591569
-0.367029
-0.180435
-0.0554648
0.0231464
0.0690012
0.0898004
-0.656515
-0.699191
-0.692806
-0.699011
-0.69572
-0.615947
-0.476545
-0.229631
0.122104
0.610975
1.24333
1.9221
2.68158
3.42532
3.78199
3.96366
3.77623
3.18131
2.47615
1.454
0.485631
-0.591698
-1.67254
-2.65369
-3.59744
-4.28948
-4.82437
-4.95564
-4.8794
-4.28789
-3.64719
-2.92162
-2.18009
-1.50268
-0.997561
-0.603367
-0.34179
-0.148223
-0.0342605
0.034953
0.0687545
-0.699904
-0.738658
-0.750522
-0.711507
-0.67439
-0.566201
-0.331959
0.0283153
0.587745
1.32951
2.38572
3.47377
4.87672
6.11637
6.91968
7.1172
6.46675
5.8703
4.29942
2.83123
1.10541
-0.634532
-2.40676
-4.13779
-5.56982
-6.99043
-7.79701
-8.07825
-7.97831
-7.22484
-5.9215
-4.59155
-3.41263
-2.2642
-1.49806
-0.921673
-0.526256
-0.264698
-0.111456
-0.00846241
0.0431693
-0.722227
-0.741188
-0.767615
-0.707275
-0.641471
-0.460601
-0.154718
0.352953
1.13741
2.29484
3.94805
5.91554
7.82245
9.49033
11.6039
11.5559
11.1815
9.83225
7.42807
4.67752
1.96289
-0.703255
-3.49212
-6.06536
-8.84911
-10.6771
-12.308
-12.351
-12.1352
-10.9377
-9.167
-7.15818
-5.05078
-3.38513
-2.133
-1.29539
-0.772291
-0.410167
-0.193447
-0.0608913
0.0121736
-0.721952
-0.784501
-0.763613
-0.738416
-0.602293
-0.372852
0.0418489
0.743986
1.8406
3.41151
5.63428
8.53995
12.2176
14.6901
17.3822
17.4276
16.1358
14.3829
11.174
7.0907
3.16433
-0.79478
-4.59816
-8.90678
-12.8375
-16.0846
-18.1373
-19.2066
-18.1489
-16.1335
-13.1681
-9.92505
-6.9757
-4.67057
-2.87729
-1.7637
-1.03112
-0.567694
-0.292309
-0.123087
-0.0262961
-0.746244
-0.795743
-0.793051
-0.710936
-0.566564
-0.278232
0.232252
1.14133
2.49371
4.92887
7.85829
11.5985
16.0365
21.4208
24.3174
24.5104
24.4974
19.97
15.4446
9.84607
4.447
-0.819369
-6.19633
-11.6114
-17.3074
-22.4492
-25.0018
-26.6897
-26.4265
-22.7435
-17.4437
-13.0008
-9.57705
-5.79944
-3.75768
-2.21737
-1.3042
-0.749214
-0.375269
-0.181028
-0.0689734
-0.80383