# vtk DataFile Version 3.0
Gravity effects
ASCII
DATASET UNSTRUCTURED_GRID

POINTS	1681	double
0	0	-0.1
50	0	-0.1
100	0	-0.1
150	0	-0.1
200	0	-0.1
250	0	-0.1
300	0	-0.1
350	0	-0.1
400	0	-0.1
450	0	-0.1
500	0	-0.1
550	0	-0.1
600	0	-0.1
650	0	-0.1
700	0	-0.1
750	0	-0.1
800	0	-0.1
850	0	-0.1
900	0	-0.1
950	0	-0.1
1000	0	-0.1
1050	0	-0.1
1100	0	-0.1
1150	0	-0.1
1200	0	-0.1
1250	0	-0.1
1300	0	-0.1
1350	0	-0.1
1400	0	-0.1
1450	0	-0.1
1500	0	-0.1
1550	0	-0.1
1600	0	-0.1
1650	0	-0.1
1700	0	-0.1
1750	0	-0.1
1800	0	-0.1
1850	0	-0.1
1900	0	-0.1
1950	0	-0.1
2000	0	-0.1
0	50	-0.1
50	50	-0.1
100	50	-0.1
150	50	-0.1
200	50	-0.1
250	50	-0.1
300	50	-0.1
350	50	-0.1
400	50	-0.1
450	50	-0.1
500	50	-0.1
550	50	-0.1
600	50	-0.1
650	50	-0.1
700	50	-0.1
750	50	-0.1
800	50	-0.1
850	50	-0.1
900	50	-0.1
950	50	-0.1
1000	50	-0.1
1050	50	-0.1
1100	50	-0.1
1150	50	-0.1
1200	50	-0.1
1250	50	-0.1
1300	50	-0.1
1350	50	-0.1
1400	50	-0.1
1450	50	-0.1
1500	50	-0.1
1550	50	-0.1
1600	50	-0.1
1650	50	-0.1
1700	50	-0.1
1750	50	-0.1
1800	50	-0.1
1850	50	-0.1
1900	50	-0.1
1950	50	-0.1
2000	50	-0.1
0	100	-0.1
50	100	-0.1
100	100	-0.1
150	100	-0.1
200	100	-0.1
250	100	-0.1
300	100	-0.1
350	100	-0.1
400	100	-0.1
450	100	-0.1
500	100	-0.1
550	100	-0.1
600	100	-0.1
650	100	-0.1
700	100	-0.1
750	100	-0.1
800	100	-0.1
850	100	-0.1
900	100	-0.1
950	100	-0.1
1000	100	-0.1
1050	100	-0.1
1100	100	-0.1
1150	100	-0.1
1200	100	-0.1
1250	100	-0.1
1300	100	-0.1
1350	100	-0.1
1400	100	-0.1
1450	100	-0.1
1500	100	-0.1
1550	100	-0.1
1600	100	-0.1
1650	100	-0.1
1700	100	-0.1
1750	100	-0.1
1800	100	-0.1
1850	100	-0.1
1900	100	-0.1
1950	100	-0.1
2000	100	-0.1
0	150	-0.1
50	150	-0.1
100	150	-0.1
150	150	-0.1
200	150	-0.1
250	150	-0.1
300	150	-0.1
350	150	-0.1
400	150	-0.1
450	150	-0.1
500	150	-0.1
550	150	-0.1
600	150	-0.1
650	150	-0.1
700	150	-0.1
750	150	-0.1
800	150	-0.1
850	150	-0.1
900	150	-0.1
950	150	-0.1
1000	150	-0.1
1050	150	-0.1
1100	150	-0.1
1150	150	-0.1
1200	150	-0.1
1250	150	-0.1
1300	150	-0.1
1350	150	-0.1
1400	150	-0.1
1450	150	-0.1
1500	150	-0.1
1550	150	-0.1
1600	150	-0.1
1650	150	-0.1
1700	150	-0.1
1750	150	-0.1
1800	150	-0.1
1850	150	-0.1
1900	150	-0.1
1950	150	-0.1
2000	150	-0.1
0	200	-0.1
50	200	-0.1
100	200	-0.1
150	200	-0.1
200	200	-0.1
250	200	-0.1
300	200	-0.1
350	200	-0.1
400	200	-0.1
450	200	-0.1
500	200	-0.1
550	200	-0.1
600	200	-0.1
650	200	-0.1
700	200	-0.1
750	200	-0.1
800	200	-0.1
850	200	-0.1
900	200	-0.1
950	200	-0.1
1000	200	-0.1
1050	200	-0.1
1100	200	-0.1
1150	200	-0.1
1200	200	-0.1
1250	200	-0.1
1300	200	-0.1
1350	200	-0.1
1400	200	-0.1
1450	200	-0.1
1500	200	-0.1
1550	200	-0.1
1600	200	-0.1
1650	200	-0.1
1700	200	-0.1
1750	200	-0.1
1800	200	-0.1
1850	200	-0.1
1900	200	-0.1
1950	200	-0.1
2000	200	-0.1
0	250	-0.1
50	250	-0.1
100	250	-0.1
150	250	-0.1
200	250	-0.1
250	250	-0.1
300	250	-0.1
350	250	-0.1
400	250	-0.1
450	250	-0.1
500	250	-0.1
550	250	-0.1
600	250	-0.1
650	250	-0.1
700	250	-0.1
750	250	-0.1
800	250	-0.1
850	250	-0.1
900	250	-0.1
950	250	-0.1
1000	250	-0.1
1050	250	-0.1
1100	250	-0.1
1150	250	-0.1
1200	250	-0.1
1250	250	-0.1
1300	250	-0.1
1350	250	-0.1
1400	250	-0.1
1450	250	-0.1
1500	250	-0.1
1550	250	-0.1
1600	250	-0.1
1650	250	-0.1
1700	250	-0.1
1750	250	-0.1
1800	250	-0.1
1850	250	-0.1
1900	250	-0.1
1950	250	-0.1
2000	250	-0.1
0	300	-0.1
50	300	-0.1
100	300	-0.1
150	300	-0.1
200	300	-0.1
250	300	-0.1
300	300	-0.1
350	300	-0.1
400	300	-0.1
450	300	-0.1
500	300	-0.1
550	300	-0.1
600	300	-0.1
650	300	-0.1
700	300	-0.1
750	300	-0.1
800	300	-0.1
850	300	-0.1
900	300	-0.1
950	300	-0.1
1000	300	-0.1
1050	300	-0.1
1100	300	-0.1
1150	300	-0.1
1200	300	-0.1
1250	300	-0.1
1300	300	-0.1
1350	300	-0.1
1400	300	-0.1
1450	300	-0.1
1500	300	-0.1
1550	300	-0.1
1600	300	-0.1
1650	300	-0.1
1700	300	-0.1
1750	300	-0.1
1800	300	-0.1
1850	300	-0.1
1900	300	-0.1
1950	300	-0.1
2000	300	-0.1
0	350	-0.1
50	350	-0.1
100	350	-0.1
150	350	-0.1
200	350	-0.1
250	350	-0.1
300	350	-0.1
350	350	-0.1
400	350	-0.1
450	350	-0.1
500	350	-0.1
550	350	-0.1
600	350	-0.1
650	350	-0.1
700	350	-0.1
750	350	-0.1
800	350	-0.1
850	350	-0.1
900	350	-0.1
950	350	-0.1
1000	350	-0.1
1050	350	-0.1
1100	350	-0.1
1150	350	-0.1
1200	350	-0.1
1250	350	-0.1
1300	350	-0.1
1350	350	-0.1
1400	350	-0.1
1450	350	-0.1
1500	350	-0.1
1550	350	-0.1
1600	350	-0.1
1650	350	-0.1
1700	350	-0.1
1750	350	-0.1
1800	350	-0.1
1850	350	-0.1
1900	350	-0.1
1950	350	-0.1
2000	350	-0.1
0	400	-0.1
50	400	-0.1
100	400	-0.1
150	400	-0.1
200	400	-0.1
250	400	-0.1
300	400	-0.1
350	400	-0.1
400	400	-0.1
450	400	-0.1
500	400	-0.1
550	400	-0.1
600	400	-0.1
650	400	-0.1
700	400	-0.1
750	400	-0.1
800	400	-0.1
850	400	-0.1
900	400	-0.1
950	400	-0.1
1000	400	-0.1
1050	400	-0.1
1100	400	-0.1
1150	400	-0.1
1200	400	-0.1
1250	400	-0.1
1300	400	-0.1
1350	400	-0.1
1400	400	-0.1
1450	400	-0.1
1500	400	-0.1
1550	400	-0.1
1600	400	-0.1
1650	400	-0.1
1700	400	-0.1
1750	400	-0.1
1800	400	-0.1
1850	400	-0.1
1900	400	-0.1
1950	400	-0.1
2000	400	-0.1
0	450	-0.1
50	450	-0.1
100	450	-0.1
150	450	-0.1
200	450	-0.1
250	450	-0.1
300	450	-0.1
350	450	-0.1
400	450	-0.1
450	450	-0.1
500	450	-0.1
550	450	-0.1
600	450	-0.1
650	450	-0.1
700	450	-0.1
750	450	-0.1
800	450	-0.1
850	450	-0.1
900	450	-0.1
950	450	-0.1
1000	450	-0.1
1050	450	-0.1
1100	450	-0.1
1150	450	-0.1
1200	450	-0.1
1250	450	-0.1
1300	450	-0.1
1350	450	-0.1
1400	450	-0.1
1450	450	-0.1
1500	450	-0.1
1550	450	-0.1
1600	450	-0.1
1650	450	-0.1
1700	450	-0.1
1750	450	-0.1
1800	450	-0.1
1850	450	-0.1
1900	450	-0.1
1950	450	-0.1
2000	450	-0.1
0	500	-0.1
50	500	-0.1
100	500	-0.1
150	500	-0.1
200	500	-0.1
250	500	-0.1
300	500	-0.1
350	500	-0.1
400	500	-0.1
450	500	-0.1
500	500	-0.1
550	500	-0.1
600	500	-0.1
650	500	-0.1
700	500	-0.1
750	500	-0.1
800	500	-0.1
850	500	-0.1
900	500	-0.1
950	500	-0.1
1000	500	-0.1
1050	500	-0.1
1100	500	-0.1
1150	500	-0.1
1200	500	-0.1
1250	500	-0.1
1300	500	-0.1
1350	500	-0.1
1400	500	-0.1
1450	500	-0.1
1500	500	-0.1
1550	500	-0.1
1600	500	-0.1
1650	500	-0.1
1700	500	-0.1
1750	500	-0.1
1800	500	-0.1
1850	500	-0.1
1900	500	-0.1
1950	500	-0.1
2000	500	-0.1
0	550	-0.1
50	550	-0.1
100	550	-0.1
150	550	-0.1
200	550	-0.1
250	550	-0.1
300	550	-0.1
350	550	-0.1
400	550	-0.1
450	550	-0.1
500	550	-0.1
550	550	-0.1
600	550	-0.1
650	550	-0.1
700	550	-0.1
750	550	-0.1
800	550	-0.1
850	550	-0.1
900	550	-0.1
950	550	-0.1
1000	550	-0.1
1050	550	-0.1
1100	550	-0.1
1150	550	-0.1
1200	550	-0.1
1250	550	-0.1
1300	550	-0.1
1350	550	-0.1
1400	550	-0.1
1450	550	-0.1
1500	550	-0.1
1550	550	-0.1
1600	550	-0.1
1650	550	-0.1
1700	550	-0.1
1750	550	-0.1
1800	550	-0.1
1850	550	-0.1
1900	550	-0.1
1950	550	-0.1
2000	550	-0.1
0	600	-0.1
50	600	-0.1
100	600	-0.1
150	600	-0.1
200	600	-0.1
250	600	-0.1
300	600	-0.1
350	600	-0.1
400	600	-0.1
450	600	-0.1
500	600	-0.1
550	600	-0.1
600	600	-0.1
650	600	-0.1
700	600	-0.1
750	600	-0.1
800	600	-0.1
850	600	-0.1
900	600	-0.1
950	600	-0.1
1000	600	-0.1
1050	600	-0.1
1100	600	-0.1
1150	600	-0.1
1200	600	-0.1
1250	600	-0.1
1300	600	-0.1
1350	600	-0.1
1400	600	-0.1
1450	600	-0.1
1500	600	-0.1
1550	600	-0.1
1600	600	-0.1
1650	600	-0.1
1700	600	-0.1
1750	600	-0.1
1800	600	-0.1
1850	600	-0.1
1900	600	-0.1
1950	600	-0.1
2000	600	-0.1
0	650	-0.1
50	650	-0.1
100	650	-0.1
150	650	-0.1
200	650	-0.1
250	650	-0.1
300	650	-0.1
350	650	-0.1
400	650	-0.1
450	650	-0.1
500	650	-0.1
550	650	-0.1
600	650	-0.1
650	650	-0.1
700	650	-0.1
750	650	-0.1
800	650	-0.1
850	650	-0.1
900	650	-0.1
950	650	-0.1
1000	650	-0.1
1050	650	-0.1
1100	650	-0.1
1150	650	-0.1
1200	650	-0.1
1250	650	-0.1
1300	650	-0.1
1350	650	-0.1
1400	650	-0.1
1450	650	-0.1
1500	650	-0.1
1550	650	-0.1
1600	650	-0.1
1650	650	-0.1
1700	650	-0.1
1750	650	-0.1
1800	650	-0.1
1850	650	-0.1
1900	650	-0.1
1950	650	-0.1
2000	650	-0.1
0	700	-0.1
50	700	-0.1
100	700	-0.1
150	700	-0.1
200	700	-0.1
250	700	-0.1
300	700	-0.1
350	700	-0.1
400	700	-0.1
450	700	-0.1
500	700	-0.1
550	700	-0.1
600	700	-0.1
650	700	-0.1
700	700	-0.1
750	700	-0.1
800	700	-0.1
850	700	-0.1
900	700	-0.1
950	700	-0.1
1000	700	-0.1
1050	700	-0.1
1100	700	-0.1
1150	700	-0.1
1200	700	-0.1
1250	700	-0.1
1300	700	-0.1
1350	700	-0.1
1400	700	-0.1
1450	700	-0.1
1500	700	-0.1
1550	700	-0.1
1600	700	-0.1
1650	700	-0.1
1700	700	-0.1
1750	700	-0.1
1800	700	-0.1
1850	700	-0.1
1900	700	-0.1
1950	700	-0.1
2000	700	-0.1
0	750	-0.1
50	750	-0.1
100	750	-0.1
150	750	-0.1
200	750	-0.1
250	750	-0.1
300	750	-0.1
350	750	-0.1
400	750	-0.1
450	750	-0.1
500	750	-0.1
550	750	-0.1
600	750	-0.1
650	750	-0.1
700	750	-0.1
750	750	-0.1
800	750	-0.1
850	750	-0.1
900	750	-0.1
950	750	-0.1
1000	750	-0.1
1050	750	-0.1
1100	750	-0.1
1150	750	-0.1
1200	750	-0.1
1250	750	-0.1
1300	750	-0.1
1350	750	-0.1
1400	750	-0.1
1450	750	-0.1
1500	750	-0.1
1550	750	-0.1
1600	750	-0.1
1650	750	-0.1
1700	750	-0.1
1750	750	-0.1
1800	750	-0.1
1850	750	-0.1
1900	750	-0.1
1950	750	-0.1
2000	750	-0.1
0	800	-0.1
50	800	-0.1
100	800	-0.1
150	800	-0.1
200	800	-0.1
250	800	-0.1
300	800	-0.1
350	800	-0.1
400	800	-0.1
450	800	-0.1
500	800	-0.1
550	800	-0.1
600	800	-0.1
650	800	-0.1
700	800	-0.1
750	800	-0.1
800	800	-0.1
850	800	-0.1
900	800	-0.1
950	800	-0.1
1000	800	-0.1
1050	800	-0.1
1100	800	-0.1
1150	800	-0.1
1200	800	-0.1
1250	800	-0.1
1300	800	-0.1
1350	800	-0.1
1400	800	-0.1
1450	800	-0.1
1500	800	-0.1
1550	800	-0.1
1600	800	-0.1
1650	800	-0.1
1700	800	-0.1
1750	800	-0.1
1800	800	-0.1
1850	800	-0.1
1900	800	-0.1
1950	800	-0.1
2000	800	-0.1
0	850	-0.1
50	850	-0.1
100	850	-0.1
150	850	-0.1
200	850	-0.1
250	850	-0.1
300	850	-0.1
350	850	-0.1
400	850	-0.1
450	850	-0.1
500	850	-0.1
550	850	-0.1
600	850	-0.1
650	850	-0.1
700	850	-0.1
750	850	-0.1
800	850	-0.1
850	850	-0.1
900	850	-0.1
950	850	-0.1
1000	850	-0.1
1050	850	-0.1
1100	850	-0.1
1150	850	-0.1
1200	850	-0.1
1250	850	-0.1
1300	850	-0.1
1350	850	-0.1
1400	850	-0.1
1450	850	-0.1
1500	850	-0.1
1550	850	-0.1
1600	850	-0.1
1650	850	-0.1
1700	850	-0.1
1750	850	-0.1
1800	850	-0.1
1850	850	-0.1
1900	850	-0.1
1950	850	-0.1
2000	850	-0.1
0	900	-0.1
50	900	-0.1
100	900	-0.1
150	900	-0.1
200	900	-0.1
250	900	-0.1
300	900	-0.1
350	900	-0.1
[...]
CELL_DATA	1681
SCALARS T_zz double 1
LOOKUP_TABLE table0
-0.445826
-0.46875
-0.494013
-0.520199
-0.541406
-0.557763
-0.569873
-0.572995
-0.575086
-0.571486
-0.557827
-0.542988
-0.525824
-0.507192
-0.487615
-0.465085
-0.441273
-0.416781
-0.391529
-0.365953
-0.342699
-0.319342
-0.293418
-0.267269
-0.239013
-0.20832
-0.175933
-0.142284
-0.105967
-0.0696177
-0.0359231
-0.00369609
0.0258882
0.0510188
0.0703697
0.0839847
0.0928148
0.0970459
0.0969716
0.0938876
0.0882315
-0.476333
-0.499944
-0.527209
-0.555503
-0.574664
-0.58755
-0.597609
-0.596103
-0.598056
-0.59229
-0.568212
-0.542607
-0.513604
-0.484566
-0.458466
-0.432453
-0.409849
-0.390921
-0.374446
-0.36057
-0.35385
-0.348349
-0.33804
-0.326929
-0.310852
-0.288618
-0.260948
-0.227922
-0.186193
-0.140876
-0.097368
-0.0532301
-0.0106794
0.0267542
0.0563859
0.0780965
0.0933971
0.10214
0.10446
0.102706
0.0976252
-0.512748
-0.539462
-0.568659
-0.597276
-0.614831
-0.623928
-0.627831
-0.617631
-0.608014
-0.587422
-0.545474
-0.500228
-0.451923
-0.406313
-0.368716
-0.338368
-0.319981
-0.313963
-0.317837
-0.329621
-0.351858
-0.377227
-0.398269
-0.416731
-0.425687
-0.421629
-0.404247
-0.37388
-0.327758
-0.271402
-0.211191
-0.146822
-0.0831073
-0.0256499
0.0215359
0.0575224
0.0835521
0.0998164
0.107098
0.108319
0.104666
-0.554475
-0.585842
-0.616826
-0.643398
-0.655016
-0.654841
-0.646679
-0.621489
-0.592856
-0.547722
-0.475416
-0.396096
-0.313999
-0.239572
-0.182542
-0.145815
-0.136517
-0.155352
-0.19767
-0.257584
-0.33363
-0.415481
-0.492781
-0.563415
-0.616356
-0.645061
-0.647915
-0.62528
-0.574392
-0.500684
-0.412282
-0.313272
-0.213624
-0.12261
-0.0461939
0.0136346
0.0577713
0.0869107
0.102811
0.109329
0.108455
-0.587735
-0.613564
-0.645666
-0.667693
-0.681039
-0.677582
-0.649669
-0.599647
-0.532413
-0.438741
-0.314248
-0.176799
-0.0352058
0.089661
0.178706
0.226286
0.215373
0.148943
0.0397228
-0.105108
-0.274307
-0.453064
-0.627178
-0.78622
-0.933845
-1.04044
-1.08294
-1.08028
-1.01172
-0.895613
-0.758324
-0.598443
-0.434381
-0.284521
-0.159964
-0.0616135
0.0110338
0.0601973
0.0897616
0.104799
0.108274
-0.617352
-0.636275
-0.667881
-0.683224
-0.694952
-0.682546
-0.62545
-0.535691
-0.407607
-0.234491
-0.0189798
0.219583
0.462062
0.671581
0.815225
0.881451
0.840678
0.697209
0.472874
0.181746
-0.148553
-0.494066
-0.833211
-1.14326
-1.43975
-1.67011
-1.78885
-1.82785
-1.74206
-1.56099
-1.33434
-1.06537
-0.790741
-0.543394
-0.340775
-0.181892
-0.0653145
0.0141931
0.0641171
0.0919444
0.102459
-0.648524
-0.668083
-0.696808
-0.703985
-0.70011
-0.661719
-0.564226
-0.414016
-0.19787
0.0978768
0.470436
0.88808
1.30893
1.66928
1.91143
2.00601
1.91362
1.63866
1.21613
0.681269
0.0820873
-0.542668
-1.15993
-1.7326
-2.26101
-2.68167
-2.93715
-3.04205
-2.93712
-2.65286
-2.261
-1.80061
-1.34204
-0.938216
-0.612198
-0.361085
-0.179194
-0.0557099
0.0227568
0.0684877
0.0896699
-0.668835
-0.685158
-0.708538
-0.706552
-0.685798
-0.616305
-0.464971
-0.227628
0.122502
0.612599
1.2432
1.96644
2.70319
3.33517
3.7492
3.87922
3.6734
3.15925
2.41568
1.50221
0.481473
-0.58749
-1.65688
-2.67381
-3.61149
-4.36789
-4.8448
-5.02906
-4.85341
-4.36833
-3.6942
-2.92239
-2.1665
-1.51293
-0.996576
-0.608861
-0.334171
-0.150663
-0.034404
0.0347448
0.0700095
-0.696303
-0.721193
-0.737259
-0.724874
-0.671402
-0.550399
-0.328778
0.0284018
0.570058
1.34737
2.36983
3.56772
4.90605
6.07279
6.8736
7.16707
6.76542
5.87138
4.4541
2.78868
1.11547
-0.64752
-2.40476
-4.11127
-5.72798
-7.04409
-7.87485
-8.16975
-7.92732
-7.19289
-6.01053
-4.69867
-3.41117
-2.29502
-1.496
-0.912661
-0.521869
-0.270783
-0.106672
-0.00851903
0.04388
-0.722676
-0.755378
-0.762957
-0.738046
-0.647545
-0.46608
-0.156018
0.356165
1.15304
2.32246
3.88949
5.75527
7.9051
9.7964
11.1187
11.6319
11.0018
9.60089
7.29504
4.61368
2.01445
-0.713274
-3.42808
-6.09866
-8.6668
-10.7759
-12.1034
-12.5253
-12.1082
-10.9442
-9.05769
-7.02189
-5.04178
-3.32866
-2.14468
-1.29872
-0.753569
-0.414996
-0.193071
-0.0608193
0.0114998
-0.738812
-0.765923
-0.764829
-0.725057
-0.606275
-0.37004
0.0418603
0.734319
1.8355
3.48654
5.7489
8.51538
11.7784
14.6952
16.5807
17.247
16.272
14.0844
10.7933
6.94078
3.13501
-0.77268
-4.69922
-8.6181
-12.4916
-15.7547
-17.9798
-18.7026
-18.0538
-16.2941
-13.2079
-10.048
-7.11737
-4.58156
-2.93353
-1.77031
-1.02886
-0.576475
-0.289913
-0.120454
-0.0263934
-0.760859
-0.784628
-0.775809
-0.720411
-0.57148
-0.278975
0.234781
1.10699
2.51804
4.68505
7.76368
11.7579
16.7526
21.3551
24.2355
25.2309
23.8134
20.4707
15.5708
9.91437
4.49564
-0.823513
-6.14093
-11.6106
-17.3585
-22.4626
-26.1292
-27.1937
-25.6203
-22.4097
-17.6585
-13.2102
-9.27451
-5.88636
-3.75023
-2.25337
-1.30785
-0.739715
-0.388983
-0.183145
-0.0678113
-0.780204
-0.796775
-0.782326
-0.713403
-0.542286
-0.205761
0.393398
1.41435
3.13512
5.81506
9.52709
14.8303
20.8206
26.4568
30.6304
31.8818
30.2139
25.6719
19.6267
12.6775
5.60916
-0.91375
-7.39356
-14.3679
-21.212
-27.5957
-32.6339
-33.7131
-32.3353
-28.2675
-21.7121
-16.261
-11.2736
-6.98918
-4.42145
-2.62995
-1.5308
-0.888329
-0.483244
-0.246692
-0.111722
-0.798689
-0.80998
-0.792935
-0.715532
-0.531139
-0.1667
0.48896
1.60752
3.54861
6.59029
10.7003
16.9757
23.5383
29.8384
34.5896
35.7429
34.4966
29.3711
22.5451
14.7037
6.37238
-0.97584
-8.2199
-16.244
-23.6642
-30.8702
-36.8921
-37.7832
-37.0446
-32.7512
-24.7266
-18.5409
-12.7282
-7.73454
-4.87609
-2.88379
-1.68762
-1.00295
-0.561234
-0.303668
-0.15432
-0.818714
-0.832371
-0.816338
-0.737559
-0.548115
-0.172929
0.502879
1.65741
3.63921
6.75487
11.0966
17.7114
24.9534
32.0022
36.764
37.8447
36.8199
31.5652
24.094
15.5202
6.70024
-0.993857
-8.6647
-17.1121
-25.4091
-33.6164
-39.2091
-39.3768
-38.4209
-33.6908
-25.4847
-19.2705
-13.2227
-8.03551
-5.08275
-3.02094
-1.7806
-1.07077
-0.61473
-0.348152
-0.192456
-0.832571
-0.849835
-0.838562
-0.766195
-0.585779
-0.223896
0.431375
1.55172
3.44877
6.40731
10.554
16.7355
23.463
30.0385
34.4959
35.419
34.0903
28.9572
22.1452
14.3294
6.16877
-1.03091
-8.41063
-16.42
-24.4036
-32.3464
-36.7538
-36.5744
-36.2869
-32.0485
-24.5711
-18.8395
-12.9076
-7.80361
-4.96699
-2.97926
-1.78063
-1.09146
-0.644634
-0.381677
-0.226749
-0.844549
-0.869945
-0.866802
-0.807853
-0.647583
-0.320086
0.274547
1.29043
2.98082
5.58415
9.26379
14.58
20.4034
26.1135
30.1432
30.9872
29.7938
25.5475
19.2977
12.4483
5.46062
-0.981756
-7.40813
-14.3309
-21.0407
-27.7308
-32.2297
-32.7336
-32.0089
-28.0099
-21.5811
-16.5232
-11.4613
-7.13918
-4.60792
-2.82501
-1.72094
-1.069
-0.65371
-0.406535
-0.258305
-0.853851
-0.888495
-0.895931
-0.855283
-0.724569
-0.449128
0.0528523
0.909289
2.30617
4.43001
7.4732
11.6946
16.324
20.8706
24.2452
24.9563
24.0854
21.0339
15.6338
10.0286
4.51455
-0.862962
-6.03848
-11.5765
-16.6881
-21.7525
-25.9327
-26.7274
-25.7944
-22.6317
-17.5844
-13.4643
-9.48207
-6.11203
-4.02055
-2.53735
-1.58746
-1.00736
-0.642997
-0.422465
-0.286983
-0.859946
-0.901413
-0.920548
-0.900043
-0.804731
-0.591976
-0.199774
0.468711
1.55364
3.17729
5.43398
8.41323
11.6441
14.8005
17.1014
17.575
16.7132
14.3702
10.8073
7.10839
3.25899
-0.63531
-4.46276
-8.47868
-12.1521
-15.6731
-18.532
-19.2654
-18.7086
-16.5718
-13.1128
-10.0628
-7.22529
-4.84555
-3.25256
-2.1141
-1.37616
-0.915477
-0.615768
-0.430058
-0.312855
-0.867815
-0.916616
-0.947222
-0.945718
-0.884163
-0.732869
-0.449908
0.0325579
0.81513
1.96951
3.51914
5.42983
7.55215
9.60568
11.0227
11.4494
10.8497
9.28702
7.22426
4.94881
2.42805
-0.171711
-2.76927
-5.41763
-7.91362
-10.175
-11.893
-12.5306
-12.0733
-10.6663
-8.65723
-6.64948
-4.9567
-3.56428
-2.46439
-1.6687
-1.14561
-0.809983
-0.58056
-0.433913
-0.337669
-0.871465
-0.92218
-0.963116
-0.977889
-0.952989
-0.862781
-0.67479
-0.352196
0.167815
0.929151
1.92998
3.10481
4.33767
5.52397
6.42005
6.83994
6.75427
6.09113
5.01204
3.72833
2.2346
0.659511
-0.91997
-2.53992
-4.01119
-5.294
-6.26587
-6.72367
-6.75714
-6.27195
-5.28882
-4.18455
-3.20791
-2.39306
-1.74285
-1.2592
-0.926402
-0.701223
-0.541326
-0.434591
-0.361066
-0.872796
-0.924234
-0.974032
-1.0028
-1.01
-0.971207
-0.858689
-0.659629
-0.339392
0.13213
0.754079
1.47936
2.24909
3.00455
3.67123
4.13352
4.32143
4.22435
3.89268
3.42939
2.79502
2.05698
1.27044
0.374344
-0.497669
-1.29085
-1.95461
-2.38081
-2.58792
-2.55922
-2.31678
-1.97847
-1.63685
-1.33587
-1.0839
-0.878274
-0.717855
-0.595551
-0.502653
-0.43517
-0.384161
-0.8726
-0.927664
-0.984767
-1.02658
-1.05579
-1.05307
-0.997845
-0.887069
-0.698825
-0.414004
-0.0300198
0.433903
0.959487
1.51601
2.07167
2.60175
3.10165
3.54036
3.90065
4.20752
4.34431
4.31046
4.12545
3.7331
3.27664
2.80637
2.32654
1.87002
1.38382
0.902608
0.486823
0.141671
-0.130549
-0.32586
-0.444371
-0.498506
-0.509787
-0.495323
-0.467798
-0.438501
-0.408178
-0.862736
-0.918296
-0.980938
-1.03543
-1.0858
-1.11377
-1.10087
-1.0487
-0.942469
-0.768742
-0.520312
-0.195805
0.217112
0.720571
1.32716
2.07147
2.98708
4.02482
5.11504
6.23284
7.1879
7.83397
8.09786
7.99991
7.78901
7.54059
7.19775
6.64343
5.7262
4.57075
3.39866
2.32021
1.4019
0.688656
0.189728
-0.126321
-0.308605
-0.400725
-0.437065
-0.444164
-0.432682
-0.851112
-0.911061
-0.97729
-1.04329
-1.1025
-1.14539
-1.16263
-1.14641
-1.09154
-0.982526
-0.803499
-0.543731
-0.161154
0.38581
1.16035
2.2517
3.76045
5.55885
7.62634
9.86386
11.5221
12.629
13.4793
13.6846
13.7108
13.8042
13.1671
11.9986
10.8689
9.19451
6.93138
4.88056
3.14091
1.75204
0.835952
0.242541
-0.113692
-0.310197
-0.407291
-0.447729
-0.45494
-0.8368
-0.900229
-0.968232
-1.04262
-1.10587
-1.15669
-1.19395
-1.19888
-1.1737
-1.09907
-0.950985
-0.712289
-0.312842
0.331457
1.33795
2.84619
5.01434
7.64707
10.8268
14.4914
17.3785
19.3394
20.7107
20.9458
21.0577
21.5324
20.7533
18.9259
17.1019
14.3345
10.6746
7.54092
4.93218
2.83292
1.47416
0.592713
0.063548
-0.231483
-0.383306
-0.45266
-0.475888
-0.819402
-0.880832
-0.949115
-1.02696
-1.09698
-1.15737
-1.20638
-1.22486
-1.2147
-1.15541
-1.01873
-0.777027
-0.339129
0.415082
1.65107
3.54713
6.59668
10.2958
14.331
19.416
23.5524
26.0762
28.3021
28.8535
28.256
28.5376
28.1293
25.9774
23.5644
19.651
14.4471
10.3466
6.74572
3.80795
2.03895
0.890468
0.205796
-0.173847
-0.370374
-0.462723
-0.496792
-0.807825
-0.869272
-0.936619
-1.01253
-1.08078
-1.14192
-1.19644
-1.22574
-1.22975
-1.18334
-1.05171
-0.799183
-0.323554
0.514224
1.91149
4.0781
7.84524
12.4112
17.079
23.354
28.14
30.8162
34.2011
35.2852
33.9394
33.9676
33.9905
31.5885
28.6643
23.8357
17.3386
12.4973
8.10816
4.49795
2.43487
1.09341
0.298024
-0.14023
-0.366886
-0.474548
-0.51596
-0.786732
-0.83716
-0.902686
-0.972743
-1.04208
-1.10679
-1.16288
-1.20229
-1.21777
-1.1822
-1.05801
-0.801008
-0.313167
0.547038
1.99105
4.2492
8.17971
12.968
18.1396
25.1426
30.1987
33.0826
36.4861
37.1905
36.5989
37.5645
37.1517
34.019
30.6347
25.2633
18.3281
13.2533
8.57452
4.72355
2.55968
1.1486
0.311561
-0.149436
-0.387693
-0.501276
-0.54047
-0.762593
-0.801984
-0.865271
-0.928507
-0.997485
-1.06406
-1.12006
-1.16827
-1.19488
-1.17191
-1.06154
-0.815877
-0.35014
0.463823
1.82917
3.97848
7.79148
12.4125
17.495
24.2205
28.7205
31.2781
34.0245
34.2489
34.6586
36.4075
35.0402
31.374
28.7284
24.0687
17.6157
12.841
8.24245
4.4389
2.38954
1.04773
0.246956
-0.196622
-0.426296
-0.535521
-0.567245
-0.742848
-0.782419
-0.843555
-0.901745
-0.964149
-1.02572
-1.08142
-1.13542
-1.17339
-1.16599
-1.07558
-0.859394
-0.44667
0.26591
1.45172
3.32669
6.39794
10.1339
14.4375
19.8095
23.7668
26.3649
28.504
28.7628
28.7139
29.3976
28.588
26.1012
23.7003
19.7439
14.5754
10.545
6.80559
3.74984
1.9823
0.821454
0.122024
-0.269169
-0.472254
-0.567612
-0.591821
-0.714093
-0.752354
-0.811758
-0.867676
-0.927708
-0.987592
-1.04297
-1.09863
-1.14165
-1.14586
-1.07883
-0.905857
-0.57039
0.00498653
0.953101
2.45042
4.61758
7.26859
10.5801
14.3561
17.2345
19.3201
21.016
21.6278
21.1324
20.7563
20.5332
19.1557
17.201
14.3908
10.7733
7.71352
5.00907
2.82979
1.43372
0.512674
-0.0490626
-0.366385
-0.53053
-0.605044
-0.617879
-0.686799
-0.730366
-0.788431
-0.844102
-0.906467
-0.968609
-1.02334
-1.07718
-1.117
-1.12595
-1.08286
-0.959146
-0.70635
-0.273893
0.424059
1.5117
3.06051
4.93573
7.14359
9.48969
11.2701
12.6335
13.7961
14.3889
14.3425
14.1257
13.7454
12.713
11.4439
9.68577
7.3688
5.26965
3.3917
1.87438
0.860508
0.184417
-0.233433
-0.47049
-0.590272
-0.640436
-0.641249
-0.657941
-0.706544
-0.763317
-0.819136
-0.884356
-0.948986
-1.00265
-1.05353
-1.08866
-1.10096
-1.08076
-1.0048
-0.830357
-0.529103
-0.0556222
0.666785
1.6625
2.86755
4.17477
5.50177
6.83573
7.95689
8.52655
8.79699
9.02893
9.03831
8.7425
8.099
7.06895
5.77317
4.40172
3.09578
1.94942
1.02461
0.341266
-0.120415
-0.407826
-0.568709
-0.644696
-0.670445
-0.659462
-0.624117
-0.670476
-0.725621
-0.780461
-0.845116
-0.909014
-0.961241
-1.0104
-1.04603
-1.06599
-1.06671
-1.03124
-0.924902
-0.733589
-0.437245
0.00877585
0.615319
1.34944
2.14845
2.94429
3.70535
4.35368
4.74065
4.96545
5.12136
5.10105
4.88406
4.4797
3.89948
3.18177
2.39235
1.61507
0.917358
0.34432
-0.0857552
-0.377231
-0.55606
-0.650478
-0.687401
-0.691556
-0.669821
-0.595235
-0.639938
-0.692943
-0.744977
-0.806409
-0.867328
-0.917684
-0.967107
-1.00659
-1.03604
-1.05459
-1.04913
-0.991571
-0.8792
-0.708091
-0.449423
-0.0969995
0.330994
0.799189
1.26866
1.68827
2.04144
2.3076
2.48344
2.56854
2.54312
2.41066
2.1715
1.84849
1.45634
1.01775
0.578827
0.178835
-0.153671
-0.403824
-0.568958
-0.663486
-0.70433
-0.709391
-0.696782
-0.668192
-0.568297
-0.60911
-0.659493
-0.707183
-0.766503
-0.825871
-0.873828
-0.924663
-0.966357
-1.00209
-1.03439
-1.04831
-1.03159
-0.98001
-0.889325
-0.748422
-0.55705
-0.321241
-0.0566263
0.212114
0.456661
0.661434
0.811688
0.91269
0.965849
0.957569
0.88721
0.755696
0.581714
0.372923
0.138341
-0.0971171
-0.310094
-0.485771
-0.615301
-0.692031
-0.734424
-0.744424
-0.72577
-0.701815
-0.662791
-0.543331
-0.580075
-0.627471
-0.670318
-0.72698
-0.784321
-0.829551
-0.881503
-0.924697
-0.964709
-1.00642
-1.03184
-1.04302
-1.03182
-0.989874
-0.919819
-0.826134
-0.706414
-0.564111
-0.418572
-0.282018
-0.166859
-0.0791979
-0.0167134
0.0145094
0.0137422
-0.0182374
-0.0833769
-0.17042
-0.275139
-0.393006
-0.510142
-0.610905
-0.689543
-0.742482
-0.761236
-0.771601
-0.763564
-0.72899
-0.698114
-0.650946
-0.519816
-0.554324
-0.598521
-0.637177
-0.689151
-0.742283
-0.784876
-0.836528
-0.881884
-0.925999
-0.973174
-1.00579
-1.02806
-1.03571
-1.02392
-0.99668
-0.958032
-0.903919
-0.834185
-0.762203
-0.693248
-0.633602
-0.586728
-0.551309
-0.533393
-0.530779
-0.540464
-0.566233
-0.601217
-0.644886
-0.696059
-0.745332
-0.782079
-0.804607
-0.811729
-0.795709
-0.781637
-0.75778
-0.714045
-0.679028
-0.63128
-0.493265
-0.524453
-0.565401
-0.601157
-0.65065
-0.70153
-0.741914
-0.791529
-0.835508
-0.879637
-0.928983
-0.966687
-0.997953
-1.01968
-1.02813
-1.02788
-1.02282
-1.00789
-0.980647
-0.950933
-0.920048
-0.891169
-0.86665
-0.845703
-0.834379
-0.828962
-0.825221
-0.827857
-0.832417
-0.840722
-0.85373
-0.864497
-0.865071
-0.856116
-0.838185
-0.804409
-0.779365
-0.749379
-0.70205
-0.664488
-0.614832
-0.470391
-0.503886
-0.541642
-0.575667
-0.615883
-0.65749
-0.696092
-0.742324
-0.78829
-0.835354
-0.884273
-0.925502
-0.961587
-0.991669
-1.01432
-1.03143
-1.04419
-1.04967
-1.04667
-1.04006
-1.03015
-1.01805
-1.00486
-0.990691
-0.979074
-0.968189
-0.955902
-0.945005
-0.933921
-0.923932
-0.915546
-0.905175
-0.888606
-0.865732
-0.836219
-0.796272
-0.758797
-0.718759
-0.672
-0.633085
-0.590573

POINT_DATA	1681
SCALARS T_zz double 1
LOOKUP_TABLE table0
-0.445826
-0.46875
-0.494013
-0.520199
-0.541406
-0.557763
-0.569873
-0.572995
-0.575086
-0.571486
-0.557827
-0.542988
-0.525824
-0.507192
-0.487615
-0.465085
-0.441273
-0.416781
-0.391529
-0.365953
-0.342699
-0.319342
-0.293418
-0.267269
-0.239013
-0.20832
-0.175933
-0.142284
-0.105967
-0.0696177
-0.0359231
-0.00369609
0.0258882
0.0510188
0.0703697
0.0839847
0.0928148
0.0970459
0.0969716
0.0938876
0.0882315
-0.476333
-0.499944
-0.527209
-0.555503
-0.574664
-0.58755
-0.597609
-0.596103
-0.598056
-0.59229
-0.568212
-0.542607
-0.513604
-0.484566
-0.458466
-0.432453
-0.409849
-0.390921
-0.374446
-0.36057
-0.35385
-0.348349
-0.33804
-0.326929
-0.310852
-0.288618
-0.260948
-0.227922
-0.186193
-0.140876
-0.097368
-0.0532301
-0.0106794
0.0267542
0.0563859
0.0780965
0.0933971
0.10214
0.10446
0.102706
0.0976252
-0.512748
-0.539462
-0.568659
-0.597276
-0.614831
-0.623928
-0.627831
-0.617631
-0.608014
-0.587422
-0.545474
-0.500228
-0.451923
-0.406313
-0.368716
-0.338368
-0.319981
-0.313963
-0.317837
-0.329621
-0.351858
-0.377227
-0.398269
-0.416731
-0.425687
-0.421629
-0.404247
-0.37388
-0.327758
-0.271402
-0.211191
-0.146822
-0.0831073
-0.0256499
0.0215359
0.0575224
0.0835521
0.0998164
0.107098
0.108319
0.104666
-0.554475
-0.585842
-0.616826
-0.643398
-0.655016
-0.654841
-0.646679
-0.621489
-0.592856
-0.547722
-0.475416
-0.396096
-0.313999
-0.239572
-0.182542
-0.145815
-0.136517
-0.155352
-0.19767
-0.257584
-0.33363
-0.415481
-0.492781
-0.563415
-0.616356
-0.645061
-0.647915
-0.62528
-0.574392
-0.500684
-0.412282
-0.313272
-0.213624
-0.12261
-0.0461939
0.0136346
0.0577713
0.0869107
0.102811
0.109329
0.108455
-0.587735
-0.613564
-0.645666
-0.667693
-0.681039
-0.677582
-0.649669
-0.599647
-0.532413
-0.438741
-0.314248
-0.176799
-0.0352058
0.089661
0.178706
0.226286
0.215373
0.148943
0.0397228
-0.105108
-0.274307
-0.453064
-0.627178
-0.78622
-0.933845
-1.04044
-1.08294
-1.08028
-1.01172
-0.895613
-0.758324
-0.598443
-0.434381
-0.284521
-0.159964
-0.0616135
0.0110338
0.0601973
0.0897616
0.104799
0.108274
-0.617352
-0.636275
-0.667881
-0.683224
-0.694952
-0.682546
-0.62545
-0.535691
-0.407607
-0.234491
-0.0189798
0.219583
0.462062
0.671581
0.815225
0.881451
0.840678
0.697209
0.472874
0.181746
-0.148553
-0.494066
-0.833211
-1.14326
-1.43975
-1.67011
-1.78885
-1.82785
-1.74206
-1.56099
-1.33434
-1.06537
-0.790741
-0.543394
-0.340775
-0.181892
-0.0653145
0.0141931
0.0641171
0.0919444
0.102459
-0.648524
-0.668083
-0.696808
-0.703985
-0.70011
-0.661719
-0.564226
-0.414016
-0.19787
0.0978768
0.470436
0.88808
1.30893
1.66928
1.91143
2.00601
1.91362
1.63866
1.21613
0.681269
0.0820873
-0.542668
-1.15993
-1.7326
-2.26101
-2.68167
-2.93715
-3.04205
-2.93712
-2.65286
-2.261
-1.80061
-1.34204
-0.938216
-0.612198
-0.361085
-0.179194
-0.0557099
0.0227568
0.0684877
0.0896699
-0.668835
-0.685158
-0.708538
-0.706552
-0.685798
-0.616305
-0.464971
-0.227628
0.122502
0.612599
1.2432
1.96644
2.70319
3.33517
3.7492
3.87922
3.6734
3.15925
2.41568
1.50221
0.481473
-0.58749
-1.65688
-2.67381
-3.61149
-4.36789
-4.8448
-5.02906
-4.85341
-4.36833
-3.6942
-2.92239
-2.1665
-1.51293
-0.996576
-0.608861
-0.334171
-0.150663
-0.034404
0.0347448
0.0700095
-0.696303
-0.721193
-0.737259
-0.724874
-0.671402
-0.550399
-0.328778
0.0284018
0.570058
1.34737
2.36983
3.56772
4.90605
6.07279
6.8736
7.16707
6.76542
5.87138
4.4541
2.78868
1.11547
-0.64752
-2.40476
-4.11127
-5.72798
-7.04409
-7.87485
-8.16975
-7.92732
-7.19289
-6.01053
-4.69867
-3.41117
-2.29502
-1.496
-0.912661
-0.521869
-0.270783
-0.106672
-0.00851903
0.04388
-0.722676
-0.755378
-0.762957
-0.738046
-0.647545
-0.46608
-0.156018
0.356165
1.15304
2.32246
3.88949
5.75527
7.9051
9.7964
11.1187
11.6319
11.0018
9.60089
7.29504
4.61368
2.01445
-0.713274
-3.42808
-6.09866
-8.6668
-10.7759
-12.1034
-12.5253
-12.1082
-10.9442
-9.05769
-7.02189
-5.04178
-3.32866
-2.14468
-1.29872
-0.753569
-0.414996
-0.193071
-0.0608193
0.0114998
-0.738812
-0.765923
-0.764829
-0.725057
-0.606275
-0.37004
0.0418603
0.734319
1.8355
3.48654
5.7489
8.51538
11.7784
14.6952
16.5807
17.247
16.272
14.0844
10.7933
6.94078
3.13501
-0.77268
-4.69922
-8.6181
-12.4916
-15.7547
-17.9798
-18.7026
-18.0538
-16.2941
-13.2079
-10.048
-7.11737
-4.58156
-2.93353
-1.77031
-1.02886
-0.576475
-0.289913
-0.120454
-0.0263934
-0.760859
-0.784628
-0.775809
-0.720411
-0.57148
-0.278975
0.234781
1.10699
2.51804
4.68505
7.76368
11.7579
16.7526
21.3551
24.2355
25.2309
23.8134
20.4707
15.5708
9.91437
4.49564
-0.823513
-6.14093
-11.6106
-17.3585
-22.4626
-26.1292
-27.1937
-25.6203
-22.4097
-17.6585
-13.2102
-9.27451
-5.88636
-3.75023
-2.25337
-1.30785
-0.739715
-0.388983
-0.183145
-0.0678113