# vtk DataFile Version 3.0
Gravity effects
ASCII
DATASET UNSTRUCTURED_GRID

POINTS	1681	double
0	0	-0.1
50	0	-0.1
100	0	-0.1
150	0	-0.1
200	0	-0.1
250	0	-0.1
300	0	-0.1
350	0	-0.1
400	0	-0.1
450	0	-0.1
500	0	-0.1
550	0	-0.1
600	0	-0.1
650	0	-0.1
700	0	-0.1
750	0	-0.1
800	0	-0.1
850	0	-0.1
900	0	-0.1
950	0	-0.1
1000	0	-0.1
1050	0	-0.1
1100	0	-0.1
1150	0	-0.1
1200	0	-0.1
1250	0	-0.1
1300	0	-0.1
1350	0	-0.1
1400	0	-0.1
1450	0	-0.1
1500	0	-0.1
1550	0	-0.1
1600	0	-0.1
1650	0	-0.1
1700	0	-0.1
1750	0	-0.1
1800	0	-0.1
1850	0	-0.1
1900	0	-0.1
1950	0	-0.1
2000	0	-0.1
0	50	-0.1
50	50	-0.1
100	50	-0.1
150	50	-0.1
200	50	-0.1
250	50	-0.1
300	50	-0.1
350	50	-0.1
400	50	-0.1
450	50	-0.1
500	50	-0.1
550	50	-0.1
600	50	-0.1
650	50	-0.1
700	50	-0.1
750	50	-0.1
800	50	-0.1
850	50	-0.1
900	50	-0.1
950	50	-0.1
1000	50	-0.1
1050	50	-0.1
1100	50	-0.1
1150	50	-0.1
1200	50	-0.1
1250	50	-0.1
1300	50	-0.1
1350	50	-0.1
1400	50	-0.1
1450	50	-0.1
1500	50	-0.1
1550	50	-0.1
1600	50	-0.1
1650	50	-0.1
1700	50	-0.1
1750	50	-0.1
1800	50	-0.1
1850	50	-0.1
1900	50	-0.1
1950	50	-0.1
2000	50	-0.1
0	100	-0.1
50	100	-0.1
100	100	-0.1
150	100	-0.1
200	100	-0.1
250	100	-0.1
300	100	-0.1
350	100	-0.1
400	100	-0.1
450	100	-0.1
500	100	-0.1
550	100	-0.1
600	100	-0.1
650	100	-0.1
700	100	-0.1
750	100	-0.1
800	100	-0.1
850	100	-0.1
900	100	-0.1
950	100	-0.1
1000	100	-0.1
1050	100	-0.1
1100	100	-0.1
1150	100	-0.1
1200	100	-0.1
1250	100	-0.1
1300	100	-0.1
1350	100	-0.1
1400	100	-0.1
1450	100	-0.1
1500	100	-0.1
1550	100	-0.1
1600	100	-0.1
1650	100	-0.1
1700	100	-0.1
1750	100	-0.1
1800	100	-0.1
1850	100	-0.1
1900	100	-0.1
1950	100	-0.1
2000	100	-0.1
0	150	-0.1
50	150	-0.1
100	150	-0.1
150	150	-0.1
200	150	-0.1
250	150	-0.1
300	150	-0.1
350	150	-0.1
400	150	-0.1
450	150	-0.1
500	150	-0.1
550	150	-0.1
600	150	-0.1
650	150	-0.1
700	150	-0.1
750	150	-0.1
800	150	-0.1
850	150	-0.1
900	150	-0.1
950	150	-0.1
1000	150	-0.1
1050	150	-0.1
1100	150	-0.1
1150	150	-0.1
1200	150	-0.1
1250	150	-0.1
1300	150	-0.1
1350	150	-0.1
1400	150	-0.1
1450	150	-0.1
1500	150	-0.1
1550	150	-0.1
1600	150	-0.1
1650	150	-0.1
1700	150	-0.1
1750	150	-0.1
1800	150	-0.1
1850	150	-0.1
1900	150	-0.1
1950	150	-0.1
2000	150	-0.1
0	200	-0.1
50	200	-0.1
100	200	-0.1
150	200	-0.1
200	200	-0.1
250	200	-0.1
300	200	-0.1
350	200	-0.1
400	200	-0.1
450	200	-0.1
500	200	-0.1
550	200	-0.1
600	200	-0.1
650	200	-0.1
700	200	-0.1
750	200	-0.1
800	200	-0.1
850	200	-0.1
900	200	-0.1
950	200	-0.1
1000	200	-0.1
1050	200	-0.1
1100	200	-0.1
1150	200	-0.1
1200	200	-0.1
1250	200	-0.1
1300	200	-0.1
1350	200	-0.1
1400	200	-0.1
1450	200	-0.1
1500	200	-0.1
1550	200	-0.1
1600	200	-0.1
1650	200	-0.1
1700	200	-0.1
1750	200	-0.1
1800	200	-0.1
1850	200	-0.1
1900	200	-0.1
1950	200	-0.1
2000	200	-0.1
0	250	-0.1
50	250	-0.1
100	250	-0.1
150	250	-0.1
200	250	-0.1
250	250	-0.1
300	250	-0.1
350	250	-0.1
400	250	-0.1
450	250	-0.1
500	250	-0.1
550	250	-0.1
600	250	-0.1
650	250	-0.1
700	250	-0.1
750	250	-0.1
800	250	-0.1
850	250	-0.1
900	250	-0.1
950	250	-0.1
1000	250	-0.1
1050	250	-0.1
1100	250	-0.1
1150	250	-0.1
1200	250	-0.1
1250	250	-0.1
1300	250	-0.1
1350	250	-0.1
1400	250	-0.1
1450	250	-0.1
1500	250	-0.1
1550	250	-0.1
1600	250	-0.1
1650	250	-0.1
1700	250	-0.1
1750	250	-0.1
1800	250	-0.1
1850	250	-0.1
1900	250	-0.1
1950	250	-0.1
2000	250	-0.1
0	300	-0.1
50	300	-0.1
100	300	-0.1
150	300	-0.1
200	300	-0.1
250	300	-0.1
300	300	-0.1
350	300	-0.1
400	300	-0.1
450	300	-0.1
500	300	-0.1
550	300	-0.1
600	300	-0.1
650	300	-0.1
700	300	-0.1
750	300	-0.1
800	300	-0.1
850	300	-0.1
900	300	-0.1
950	300	-0.1
1000	300	-0.1
1050	300	-0.1
1100	300	-0.1
1150	300	-0.1
1200	300	-0.1
1250	300	-0.1
1300	300	-0.1
1350	300	-0.1
1400	300	-0.1
1450	300	-0.1
1500	300	-0.1
1550	300	-0.1
1600	300	-0.1
1650	300	-0.1
1700	300	-0.1
1750	300	-0.1
1800	300	-0.1
1850	300	-0.1
1900	300	-0.1
1950	300	-0.1
2000	300	-0.1
0	350	-0.1
50	350	-0.1
100	350	-0.1
150	350	-0.1
200	350	-0.1
250	350	-0.1
300	350	-0.1
350	350	-0.1
400	350	-0.1
450	350	-0.1
500	350	-0.1
550	350	-0.1
600	350	-0.1
650	350	-0.1
700	350	-0.1
750	350	-0.1
800	350	-0.1
850	350	-0.1
900	350	-0.1
950	350	-0.1
1000	350	-0.1
1050	350	-0.1
1100	350	-0.1
1150	350	-0.1
1200	350	-0.1
1250	350	-0.1
1300	350	-0.1
1350	350	-0.1
1400	350	-0.1
1450	350	-0.1
1500	350	-0.1
1550	350	-0.1
1600	350	-0.1
1650	350	-0.1
1700	350	-0.1
1750	350	-0.1
1800	350	-0.1
1850	350	-0.1
1900	350	-0.1
1950	350	-0.1
2000	350	-0.1
0	400	-0.1
50	400	-0.1
100	400	-0.1
150	400	-0.1
200	400	-0.1
250	400	-0.1
300	400	-0.1
350	400	-0.1
400	400	-0.1
450	400	-0.1
500	400	-0.1
550	400	-0.1
600	400	-0.1
650	400	-0.1
700	400	-0.1
750	400	-0.1
800	400	-0.1
850	400	-0.1
900	400	-0.1
950	400	-0.1
1000	400	-0.1
1050	400	-0.1
1100	400	-0.1
1150	400	-0.1
1200	400	-0.1
1250	400	-0.1
1300	400	-0.1
1350	400	-0.1
1400	400	-0.1
1450	400	-0.1
1500	400	-0.1
1550	400	-0.1
1600	400	-0.1
1650	400	-0.1
1700	400	-0.1
1750	400	-0.1
1800	400	-0.1
1850	400	-0.1
1900	400	-0.1
1950	400	-0.1
2000	400	-0.1
0	450	-0.1
50	450	-0.1
100	450	-0.1
150	450	-0.1
200	450	-0.1
250	450	-0.1
300	450	-0.1
350	450	-0.1
400	450	-0.1
450	450	-0.1
500	450	-0.1
550	450	-0.1
600	450	-0.1
650	450	-0.1
700	450	-0.1
750	450	-0.1
800	450	-0.1
850	450	-0.1
900	450	-0.1
950	450	-0.1
1000	450	-0.1
1050	450	-0.1
1100	450	-0.1
1150	450	-0.1
1200	450	-0.1
1250	450	-0.1
1300	450	-0.1
1350	450	-0.1
1400	450	-0.1
1450	450	-0.1
1500	450	-0.1
1550	450	-0.1
1600	450	-0.1
1650	450	-0.1
1700	450	-0.1
1750	450	-0.1
1800	450	-0.1
1850	450	-0.1
1900	450	-0.1
1950	450	-0.1
2000	450	-0.1
0	500	-0.1
50	500	-0.1
100	500	-0.1
150	500	-0.1
200	500	-0.1
250	500	-0.1
300	500	-0.1
350	500	-0.1
400	500	-0.1
450	500	-0.1
500	500	-0.1
550	500	-0.1
600	500	-0.1
650	500	-0.1
700	500	-0.1
750	500	-0.1
800	500	-0.1
850	500	-0.1
900	500	-0.1
950	500	-0.1
1000	500	-0.1
1050	500	-0.1
1100	500	-0.1
1150	500	-0.1
1200	500	-0.1
1250	500	-0.1
1300	500	-0.1
1350	500	-0.1
1400	500	-0.1
1450	500	-0.1
1500	500	-0.1
1550	500	-0.1
1600	500	-0.1
1650	500	-0.1
1700	500	-0.1
1750	500	-0.1
1800	500	-0.1
1850	500	-0.1
1900	500	-0.1
1950	500	-0.1
2000	500	-0.1
0	550	-0.1
50	550	-0.1
100	550	-0.1
150	550	-0.1
200	550	-0.1
250	550	-0.1
300	550	-0.1
350	550	-0.1
400	550	-0.1
450	550	-0.1
500	550	-0.1
550	550	-0.1
600	550	-0.1
650	550	-0.1
700	550	-0.1
750	550	-0.1
800	550	-0.1
850	550	-0.1
900	550	-0.1
950	550	-0.1
1000	550	-0.1
1050	550	-0.1
1100	550	-0.1
1150	550	-0.1
1200	550	-0.1
1250	550	-0.1
1300	550	-0.1
1350	550	-0.1
1400	550	-0.1
1450	550	-0.1
1500	550	-0.1
1550	550	-0.1
1600	550	-0.1
1650	550	-0.1
1700	550	-0.1
1750	550	-0.1
1800	550	-0.1
1850	550	-0.1
1900	550	-0.1
1950	550	-0.1
2000	550	-0.1
0	600	-0.1
50	600	-0.1
100	600	-0.1
150	600	-0.1
200	600	-0.1
250	600	-0.1
300	600	-0.1
350	600	-0.1
400	600	-0.1
450	600	-0.1
500	600	-0.1
550	600	-0.1
600	600	-0.1
650	600	-0.1
700	600	-0.1
750	600	-0.1
800	600	-0.1
850	600	-0.1
900	600	-0.1
950	600	-0.1
1000	600	-0.1
1050	600	-0.1
1100	600	-0.1
1150	600	-0.1
1200	600	-0.1
1250	600	-0.1
1300	600	-0.1
1350	600	-0.1
1400	600	-0.1
1450	600	-0.1
1500	600	-0.1
1550	600	-0.1
1600	600	-0.1
1650	600	-0.1
1700	600	-0.1
1750	600	-0.1
1800	600	-0.1
1850	600	-0.1
1900	600	-0.1
1950	600	-0.1
2000	600	-0.1
0	650	-0.1
50	650	-0.1
100	650	-0.1
150	650	-0.1
200	650	-0.1
250	650	-0.1
300	650	-0.1
350	650	-0.1
400	650	-0.1
450	650	-0.1
500	650	-0.1
550	650	-0.1
600	650	-0.1
650	650	-0.1
700	650	-0.1
750	650	-0.1
800	650	-0.1
850	650	-0.1
900	650	-0.1
950	650	-0.1
1000	650	-0.1
1050	650	-0.1
1100	650	-0.1
1150	650	-0.1
1200	650	-0.1
1250	650	-0.1
1300	650	-0.1
1350	650	-0.1
1400	650	-0.1
1450	650	-0.1
1500	650	-0.1
1550	650	-0.1
1600	650	-0.1
1650	650	-0.1
1700	650	-0.1
1750	650	-0.1
1800	650	-0.1
1850	650	-0.1
1900	650	-0.1
1950	650	-0.1
2000	650	-0.1
0	700	-0.1
50	700	-0.1
100	700	-0.1
150	700	-0.1
200	700	-0.1
250	700	-0.1
300	700	-0.1
350	700	-0.1
400	700	-0.1
450	700	-0.1
500	700	-0.1
550	700	-0.1
600	700	-0.1
650	700	-0.1
700	700	-0.1
750	700	-0.1
800	700	-0.1
850	700	-0.1
900	700	-0.1
950	700	-0.1
1000	700	-0.1
1050	700	-0.1
1100	700	-0.1
1150	700	-0.1
1200	700	-0.1
1250	700	-0.1
1300	700	-0.1
1350	700	-0.1
1400	700	-0.1
1450	700	-0.1
1500	700	-0.1
1550	700	-0.1
1600	700	-0.1
1650	700	-0.1
1700	700	-0.1
1750	700	-0.1
1800	700	-0.1
1850	700	-0.1
1900	700	-0.1
1950	700	-0.1
2000	700	-0.1
0	750	-0.1
50	750	-0.1
100	750	-0.1
150	750	-0.1
200	750	-0.1
250	750	-0.1
300	750	-0.1
350	750	-0.1
400	750	-0.1
450	750	-0.1
500	750	-0.1
550	750	-0.1
600	750	-0.1
650	750	-0.1
700	750	-0.1
750	750	-0.1
800	750	-0.1
850	750	-0.1
900	750	-0.1
950	750	-0.1
1000	750	-0.1
1050	750	-0.1
1100	750	-0.1
1150	750	-0.1
1200	750	-0.1
1250	750	-0.1
1300	750	-0.1
1350	750	-0.1
1400	750	-0.1
1450	750	-0.1
1500	750	-0.1
1550	750	-0.1
1600	750	-0.1
1650	750	-0.1
1700	750	-0.1
1750	750	-0.1
1800	750	-0.1
1850	750	-0.1
1900	750	-0.1
1950	750	-0.1
2000	750	-0.1
0	800	-0.1
50	800	-0.1
100	800	-0.1
150	800	-0.1
200	800	-0.1
250	800	-0.1
300	800	-0.1
350	800	-0.1
400	800	-0.1
450	800	-0.1
500	800	-0.1
550	800	-0.1
600	800	-0.1
650	800	-0.1
700	800	-0.1
750	800	-0.1
800	800	-0.1
850	800	-0.1
900	800	-0.1
950	800	-0.1
1000	800	-0.1
1050	800	-0.1
1100	800	-0.1
1150	800	-0.1
1200	800	-0.1
1250	800	-0.1
1300	800	-0.1
1350	800	-0.1
1400	800	-0.1
1450	800	-0.1
1500	800	-0.1
1550	800	-0.1
1600	800	-0.1
1650	800	-0.1
1700	800	-0.1
1750	800	-0.1
1800	800	-0.1
1850	800	-0.1
1900	800	-0.1
1950	800	-0.1
2000	800	-0.1
0	850	-0.1
50	850	-0.1
100	850	-0.1
150	850	-0.1
200	850	-0.1
250	850	-0.1
300	850	-0.1
350	850	-0.1
400	850	-0.1
450	850	-0.1
500	850	-0.1
550	850	-0.1
600	850	-0.1
650	850	-0.1
700	850	-0.1
750	850	-0.1
800	850	-0.1
850	850	-0.1
900	850	-0.1
950	850	-0.1
1000	850	-0.1
1050	850	-0.1
1100	850	-0.1
1150	850	-0.1
1200	850	-0.1
1250	850	-0.1
1300	850	-0.1
1350	850	-0.1
1400	850	-0.1
1450	850	-0.1
1500	850	-0.1
1550	850	-0.1
1600	850	-0.1
1650	850	-0.1
1700	850	-0.1
1750	850	-0.1
1800	850	-0.1
1850	850	-0.1
1900	850	-0.1
1950	850	-0.1
2000	850	-0.1
0	900	-0.1
50	900	-0.1
100	900	-0.1
150	900	-0.1
200	900	-0.1
250	900	-0.1
300	900	-0.1
350	900	-0.1
[...]
CELL_DATA	1681
SCALARS T_zz double 1
LOOKUP_TABLE table0
-0.447093
-0.469549
-0.495731
-0.521392
-0.542275
-0.558531
-0.570612
-0.57504
-0.578306
-0.575732
-0.563087
-0.548018
-0.529696
-0.509185
-0.487664
-0.464388
-0.439687
-0.414612
-0.389737
-0.364466
-0.340856
-0.317315
-0.291611
-0.264425
-0.237771
-0.209024
-0.176033
-0.141929
-0.106217
-0.0701153
-0.0355811
-0.00369308
0.0254421
0.0503454
0.0696683
0.0838456
0.0933066
0.0978173
0.0976525
0.0944115
0.0888003
-0.476655
-0.497924
-0.526291
-0.55366
-0.572823
-0.585905
-0.595397
-0.595034
-0.59739
-0.591942
-0.569017
-0.543401
-0.513893
-0.483756
-0.456423
-0.430864
-0.407689
-0.388686
-0.37434
-0.36232
-0.355406
-0.349318
-0.338939
-0.325235
-0.311681
-0.292188
-0.261798
-0.226689
-0.185903
-0.141471
-0.0965764
-0.0528309
-0.0105007
0.0268742
0.0560945
0.0780232
0.0936657
0.102377
0.104278
0.102214
0.0973926
-0.513905
-0.538718
-0.569312
-0.596953
-0.614126
-0.622987
-0.626082
-0.616905
-0.60752
-0.587054
-0.546254
-0.501321
-0.453082
-0.406952
-0.368529
-0.338888
-0.320176
-0.314473
-0.320982
-0.335045
-0.357308
-0.382088
-0.402707
-0.41766
-0.427747
-0.425179
-0.404513
-0.372121
-0.32729
-0.272262
-0.211091
-0.14731
-0.0836099
-0.0257518
0.0214067
0.0577309
0.0839833
0.0999967
0.10666
0.107431
0.10394
-0.555523
-0.5852
-0.617892
-0.643696
-0.654927
-0.654428
-0.645375
-0.620946
-0.591945
-0.546203
-0.474624
-0.395785
-0.314332
-0.239849
-0.182078
-0.145928
-0.136171
-0.155197
-0.199653
-0.260475
-0.334614
-0.414495
-0.491289
-0.559336
-0.614682
-0.646317
-0.647353
-0.623684
-0.57444
-0.502215
-0.413201
-0.315068
-0.215165
-0.123097
-0.0462212
0.0141057
0.0584643
0.0873379
0.102603
0.108567
0.107624
-0.587732
-0.61163
-0.645749
-0.667333
-0.680929
-0.677647
-0.648706
-0.598905
-0.5322
-0.438577
-0.313786
-0.176375
-0.0356127
0.0894997
0.179693
0.225226
0.216343
0.151469
0.0398382
-0.10211
-0.269963
-0.449321
-0.623689
-0.784638
-0.930715
-1.03589
-1.07975
-1.07461
-1.01411
-0.905219
-0.763865
-0.604909
-0.43754
-0.283733
-0.160253
-0.0624122
0.0109744
0.0608389
0.0899462
0.104451
0.10767
-0.616486
-0.633367
-0.667427
-0.682745
-0.695393
-0.683633
-0.625274
-0.535028
-0.408193
-0.235672
-0.0187783
0.220429
0.462903
0.675201
0.822641
0.883914
0.840443
0.693119
0.462877
0.179962
-0.145982
-0.492795
-0.834438
-1.15428
-1.44885
-1.67722
-1.80309
-1.83507
-1.75333
-1.57292
-1.33126
-1.06239
-0.784934
-0.535315
-0.338731
-0.183344
-0.0664085
0.0145884
0.0644169
0.0919833
0.102212
-0.647999
-0.666058
-0.697853
-0.705385
-0.702416
-0.664422
-0.565293
-0.413923
-0.198076
0.0977213
0.471194
0.887285
1.30609
1.67353
1.93054
2.02746
1.92887
1.63883
1.19953
0.670256
0.0806397
-0.542401
-1.16598
-1.75052
-2.27207
-2.69278
-2.97294
-3.08227
-2.96976
-2.66363
-2.24145
-1.77818
-1.32124
-0.920835
-0.605266
-0.360912
-0.18058
-0.0560509
0.0227463
0.0687161
0.089748
-0.669602
-0.685261
-0.712307
-0.710658
-0.690164
-0.620269
-0.466754
-0.22788
0.122212
0.612087
1.24152
1.9549
2.67495
3.31913
3.78739
3.96702
3.78737
3.25644
2.45596
1.50796
0.485079
-0.58462
-1.66546
-2.67248
-3.53733
-4.26039
-4.82606
-5.09587
-4.93593
-4.4151
-3.69305
-2.90975
-2.15267
-1.49891
-0.989396
-0.607893
-0.335739
-0.151649
-0.0347881
0.0350429
0.0703412
-0.696477
-0.719261
-0.739344
-0.726674
-0.673894
-0.553071
-0.329028
0.0289929
0.564664
1.33798
2.36532
3.55821
4.76371
5.88242
6.62681
6.84081
6.64383
5.81674
4.40592
2.79018
1.10576
-0.63996
-2.39287
-4.03778
-5.44251
-6.65283
-7.50315
-7.80609
-7.79763
-7.17258
-5.96864
-4.71366
-3.42127
-2.29518
-1.49163
-0.906592
-0.519867
-0.272108
-0.107467
-0.00867541
0.0440721
-0.722207
-0.751258
-0.762951
-0.736786
-0.647164
-0.466693
-0.155111
0.355389
1.14017
2.3095
3.91549
5.85555
7.90987
9.92818
11.3585
11.7519
11.2271
9.6144
7.21437
4.63579
2.00391
-0.710237
-3.45154
-6.16624
-8.72494
-10.9796
-12.3487
-12.5425
-12.1828
-10.9046
-8.90085
-7.01022
-5.0631
-3.35381
-2.15662
-1.29381
-0.7482
-0.415103
-0.193173
-0.0610622
0.0114647
-0.739868
-0.764004
-0.767001
-0.725011
-0.605718
-0.370044
0.0415787
0.72944
1.82086
3.49167
5.84833
8.8184
12.0124
15.2923
17.6337
18.0957
17.338
14.8725
11.0089
7.13333
3.23174
-0.777714
-4.77564
-9.00442
-13.1397
-16.7762
-19.4689
-19.8957
-19.0515
-17.0209
-13.2804
-10.0203
-7.17215
-4.62176
-2.96888
-1.77583
-1.02352
-0.573913
-0.288147
-0.119966
-0.0265192
-0.763509
-0.784918
-0.78011
-0.721587
-0.570933
-0.278597
0.233932
1.10221
2.51396
4.72437
7.90371
11.9984
16.3909
20.8424
23.8086
24.1054
23.1889
20.0778
14.8649
9.71015
4.50356
-0.828682
-6.03282
-11.5816
-16.917
-21.4801
-25.126
-25.7281
-24.8055
-22.5729
-17.4521
-12.9854
-9.28199
-5.88973
-3.77913
-2.25853
-1.30189
-0.736283
-0.386585
-0.182455
-0.0683455
-0.78339
-0.796842
-0.786227
-0.713225
-0.541107
-0.205902
0.392987
1.41626
3.12347
5.83259
9.7647
14.8312
20.7286
26.3368
30.4357
31.5394
29.8916
25.9642
19.2651
12.3691
5.79293
-0.908903
-7.49502
-14.1226
-21.4295
-27.6405
-32.1922
-33.932
-31.6782
-28.2031
-21.992
-16.0643
-11.3636
-6.92759
-4.4239
-2.63906
-1.53346
-0.886154
-0.481071
-0.245223
-0.112207
-0.802314
-0.809424
-0.795856
-0.713448
-0.528956
-0.167073
0.489747
1.61879
3.53699
6.60341
11.067
16.7837
23.7555
30.0225
34.7848
36.5335
34.5062
30.3268
22.595
14.3182
6.72162
-0.982202
-8.53881
-15.7064
-24.2645
-31.4778
-36.6532
-39.6793
-36.6547
-32.5639
-25.6444
-18.467
-12.93
-7.60097
-4.83887
-2.89115
-1.69962
-1.00428
-0.560746
-0.30198
-0.154838
-0.823367
-0.832524
-0.81941
-0.734985
-0.545077
-0.17278
0.503652
1.67237
3.61932
6.77113
11.414
17.3254
24.7016
31.1653
35.6694
37.2448
35.0939
30.8946
23.1017
14.5662
6.83595
-0.97807
-8.73366
-15.8886
-24.5941
-31.8755
-36.1193
-38.5975
-35.946
-32.271
-25.8671
-18.9155
-13.282
-7.86237
-5.01556
-3.01822
-1.79452
-1.07618
-0.616511
-0.347165
-0.193284
-0.837146
-0.848987
-0.839951
-0.761814
-0.581569
-0.224216
0.428633
1.55962
3.39364
6.38489
10.8275
16.4343
23.7081
30.074
34.3937
36.0373
33.8909
29.7953
22.2198
13.8279
6.43488
-1.03626
-8.68065
-15.8085
-25.0419
-32.9027
-36.5294
-38.4408
-35.7354
-31.8992
-25.558
-18.6257
-12.9802
-7.6785
-4.92237
-2.98708
-1.79823
-1.09731
-0.645595
-0.379564
-0.226669
-0.850199
-0.871058
-0.869512
-0.805222
-0.642709
-0.317908
0.270978
1.28965
2.96388
5.65541
9.56874
14.4374
20.6596
26.1153
29.8308
31.3214
29.4255
25.7328
19.3209
12.0954
5.59306
-1.00182
-7.58001
-13.9649
-21.5795
-27.9517
-31.6293
-33.4697
-31.3091
-27.8043
-22.3837
-16.4679
-11.4817
-7.09289
-4.5984
-2.8332
-1.73246
-1.0761
-0.655722
-0.406506
-0.258516
-0.859885
-0.890856
-0.899547
-0.854524
-0.719393
-0.443767
0.0519986
0.905245
2.32359
4.55675
7.71594
11.5829
16.5048
20.8689
23.8943
25.236
23.6646
20.5188
15.4915
9.73102
4.47829
-0.865989
-6.01034
-11.2357
-16.7175
-21.1729
-24.729
-26.4979
-24.9726
-22.0103
-17.8806
-13.3913
-9.37865
-6.12198
-4.03729
-2.54018
-1.58918
-1.01354
-0.644904
-0.423832
-0.286858
-0.863647
-0.900391
-0.921062
-0.897996
-0.800401
-0.587486
-0.198372
0.467008
1.55211
3.22843
5.5634
8.38624
11.7723
14.8144
17.0018
18.0019
16.9844
14.6732
11.2453
7.2471
3.31334
-0.674426
-4.60776
-8.60553
-12.7308
-16.1251
-18.7347
-20.0142
-19.0213
-16.8044
-13.6032
-10.1534
-7.1919
-4.85551
-3.27857
-2.11759
-1.37357
-0.917134
-0.6145
-0.429207
-0.310721
-0.868469
-0.911854
-0.945072
-0.944177
-0.88416
-0.733915
-0.450325
0.0331427
0.803513
1.96478
3.55304
5.45639
7.46064
9.29151
10.6439
11.2068
10.6098
9.04116
7.20929
5.0189
2.43705
-0.165285
-2.81661
-5.43868
-7.96648
-10.0524
-11.5607
-12.3012
-11.9063
-10.6558
-8.76631
-6.70768
-4.93929
-3.5384
-2.47377
-1.66244
-1.1388
-0.81106
-0.580426
-0.434353
-0.335903
-0.870234
-0.916938
-0.962071
-0.981721
-0.956551
-0.863633
-0.673996
-0.346897
0.165886
0.920214
1.93071
3.13011
4.4107
5.62534
6.58063
7.04674
6.87867
6.08044
4.97981
3.72542
2.19671
0.630043
-0.932767
-2.53736
-4.00608
-5.23834
-6.25853
-6.84493
-6.78721
-6.21126
-5.24015
-4.15318
-3.18012
-2.3821
-1.75184
-1.25772
-0.921801
-0.699254
-0.540037
-0.433566
-0.359058
-0.869704
-0.918571
-0.973873
-1.01129
-1.0162
-0.971905
-0.859372
-0.654721
-0.332146
0.13687
0.755772
1.48504
2.27949
3.06838
3.73685
4.13838
4.37993
4.3044
3.86373
3.43072
2.78137
2.03239
1.30346
0.37477
-0.500424
-1.27319
-1.94944
-2.37479
-2.59841
-2.58121
-2.3137
-1.96774
-1.63724
-1.3488
-1.09581
-0.884225
-0.7171
-0.591532
-0.501028
-0.43346
-0.382668
-0.867082
-0.919142
-0.982001
-1.03387
-1.06328
-1.0578
-1.00464
-0.889206
-0.697853
-0.412895
-0.0311994
0.426247
0.950208
1.51381
2.06046
2.51877
3.05419
3.5215
3.82588
4.23085
4.39535
4.37642
4.27105
3.83544
3.31071
2.79558
2.30218
1.87871
1.3885
0.892132
0.489963
0.141576
-0.130816
-0.323742
-0.44354
-0.499419
-0.508976
-0.493798
-0.469693
-0.440122
-0.408966
-0.857126
-0.909431
-0.976832
-1.03975
-1.08868
-1.11318
-1.10338
-1.04909
-0.941924
-0.767116
-0.516594
-0.194675
0.215521
0.721064
1.31762
2.00181
2.97932
4.07406
5.10347
6.23513
7.05632
7.59183
7.94392
7.87911
7.6421
7.37203
7.07954
6.63721
5.76711
4.61715
3.43981
2.32597
1.39978
0.69309
0.191985
-0.127786
-0.30867
-0.399814
-0.439371
-0.446075
-0.433662
-0.848363
-0.90589
-0.975068
-1.04571
-1.10545
-1.1481
-1.16828
-1.15357
-1.09582
-0.981952
-0.799902
-0.537565
-0.158089
0.391974
1.17246
2.23621
3.78851
5.59392
7.78068
9.98648
11.8377
13.2896
13.8924
14.0593
13.9466
13.7983
13.2459
12.24
11.0201
9.1964
6.96029
4.84465
3.09001
1.72694
0.827773
0.240415
-0.113217
-0.310182
-0.409154
-0.449027
-0.45523
-0.837429
-0.899289
-0.968326
-1.04329
-1.10858
-1.16176
-1.2012
-1.21093
-1.18144
-1.10025
-0.951958
-0.710006
-0.317312
0.330505
1.35854
2.86352
5.02999
7.55525
10.8759
14.09
16.8685
19.1359
19.9632
20.5434
21.0083
21.3384
20.4455
18.5959
16.8157
14.1945
10.8066
7.59267
4.9033
2.79379
1.45476
0.589211
0.064575
-0.232239
-0.384504
-0.453095
-0.475366
-0.821327
-0.880933
-0.948879
-1.02475
-1.09368
-1.15389
-1.20423
-1.22876
-1.21717
-1.15466
-1.02062
-0.777576
-0.346976
0.412311
1.67239
3.56078
6.6471
10.1796
14.8313
19.2616
23.024
26.1756
27.395
28.8253
28.9849
28.7228
28.5111
26.6531
23.4888
19.4544
14.804
10.2934
6.68058
3.82923
2.02217
0.885374
0.206413
-0.174369
-0.370799
-0.462253
-0.495785
-0.809178
-0.868249
-0.934764
-1.00845
-1.07562
-1.1365
-1.19166
-1.22545
-1.22596
-1.17471
-1.04544
-0.792782
-0.326642
0.513005
1.92652
4.06314
7.88416
12.2118
17.9905
23.4755
28.1134
32.0638
33.5357
35.4907
34.7666
33.3721
33.6663
32.0444
28.1202
23.354
17.8901
12.3597
8.0302
4.59713
2.43202
1.09245
0.299968
-0.140898
-0.367754
-0.474484
-0.515473
-0.788174
-0.837423
-0.902367
-0.971809
-1.03966
-1.10309
-1.15938
-1.19967
-1.21666
-1.18126
-1.05574
-0.797864
-0.316356
0.546197
1.998
4.21222
8.16759
12.6507
18.8356
24.7078
29.2494
33.0638
34.4601
36.024
36.66
36.6259
35.8331
33.7628
29.6487
24.6285
19.1789
13.2688
8.57647
4.83495
2.55946
1.14755
0.313058
-0.149903
-0.388839
-0.50154
-0.540589
-0.76405
-0.803427
-0.866598
-0.931316
-0.99904
-1.06392
-1.12001
-1.16547
-1.19818
-1.17966
-1.06323
-0.814838
-0.351868
0.464654
1.83307
3.9445
7.80758
12.1808
18.4924
24.5262
28.8416
32.4477
33.6598
34.5391
35.989
36.8898
35.0466
32.7648
28.6158
23.534
18.5018
12.7316
8.17255
4.51912
2.38476
1.04454
0.247381
-0.196663
-0.427354
-0.53586
-0.567781
-0.743127
-0.781904
-0.842986
-0.903856
-0.966983
-1.02859
-1.08471
-1.13434
-1.17524
-1.16871
-1.06925
-0.84874
-0.43998
0.270282
1.45676
3.31321
6.41706
9.97785
14.9323
19.6817
23.3156
26.3305
27.5539
28.214
28.5941
28.5054
27.2291
25.8005
22.8652
19.1479
15.116
10.4627
6.74688
3.77765
1.97356
0.818755
0.122684
-0.269004
-0.473303
-0.568186
-0.592721
-0.713868
-0.750402
-0.809067
-0.867361
-0.928194
-0.988556
-1.04518
-1.09766
-1.145
-1.15118
-1.07522
-0.897089
-0.565575
0.00468434
0.952094
2.44742
4.62422
7.18196
10.6137
13.9242
16.718
19.0286
20.2803
20.989
20.8717
20.3334
19.7731
18.9922
16.8439
14.145
11.0917
7.71274
4.99219
2.8172
1.42373
0.510284
-0.0486919
-0.366259
-0.531577
-0.605737
-0.618944
-0.688358
-0.731186
-0.787229
-0.843816
-0.906508
-0.969472
-1.02659
-1.08048
-1.12123
-1.12866
-1.07936
-0.950357
-0.701581
-0.274988
0.422315
1.51085
3.07577
4.9437
7.30618
9.61822
11.6145
13.2595
14.246
14.825
14.847
14.5114
14.0085
13.216
11.6071
9.64395
7.48999
5.22234
3.35696
1.86074
0.855033
0.182548
-0.234229
-0.471388
-0.591995
-0.641672
-0.642522
-0.661269
-0.710255
-0.763709
-0.818782
-0.883531
-0.949037
-1.0061
-1.06042
-1.09352
-1.10155
-1.07877
-0.998133
-0.827331
-0.530222
-0.0550378
0.665338
1.65663
2.87078
4.19479
5.51101
6.67296
7.59754
8.27043
8.68604
8.82895
8.69934
8.29809
7.6169
6.76475
5.69961
4.40728
3.10334
1.94805
1.02112
0.340409
-0.121865
-0.409666
-0.570516
-0.6469
-0.671932
-0.660586
-0.6272
-0.673509
-0.724663
-0.777831
-0.841041
-0.905258
-0.961243
-1.01533
-1.05143
-1.07011
-1.07094
-1.03224
-0.929042
-0.739205
-0.437242
0.00852761
0.606455
1.34642
2.18035
3.02231
3.75258
4.34102
4.80175
5.11418
5.24258
5.1873
4.94865
4.49619
3.92743
3.23441
2.42151
1.62783
0.920592
0.344288
-0.08468
-0.377966
-0.557571
-0.651811
-0.688981
-0.69235
-0.670128
-0.598218
-0.643156
-0.692424
-0.742993
-0.803111
-0.86423
-0.917644
-0.970501
-1.00856
-1.03558
-1.05474
-1.04802
-0.995765
-0.885451
-0.706215
-0.443018
-0.0978427
0.325896
0.806656
1.2961
1.71264
2.05402
2.3408
2.54211
2.61806
2.58418
2.45512
2.19321
1.87948
1.49567
1.02957
0.581814
0.179169
-0.153483
-0.401398
-0.56803
-0.663365
-0.70425
-0.709856
-0.696629
-0.667473
-0.570056
-0.610821
-0.658481
-0.705817
-0.76451
-0.823961
-0.873393
-0.92373
-0.967702
-1.00549
-1.0368
-1.05141
-1.03642
-0.983133
-0.885604
-0.738142
-0.548023
-0.317555
-0.0560709
0.210647
0.444748
0.641612
0.805858
0.920044
0.962916
0.945941
0.879652
0.743521
0.579625
0.378559
0.134746
-0.0983525
-0.309847
-0.484981
-0.611792
-0.689907
-0.732679
-0.742612
-0.725107
-0.700818
-0.661134
-0.543602
-0.580228
-0.626178
-0.670057
-0.727004
-0.784394
-0.829371
-0.8765
-0.92505
-0.97088
-1.00931
-1.03702
-1.04673
-1.03155
-0.98707
-0.912414
-0.815968
-0.697769
-0.56061
-0.420509
-0.284803
-0.167202
-0.0780428
-0.0168106
0.014026
0.0138808
-0.0179518
-0.0825645
-0.170086
-0.276055
-0.393462
-0.50556
-0.606642
-0.687066
-0.738053
-0.758479
-0.768834
-0.760541
-0.727619
-0.6966
-0.648599
-0.519362
-0.554699
-0.598501
-0.639221
-0.692296
-0.745643
-0.786943
-0.83122
-0.878375
-0.925154
-0.967724
-1.00368
-1.02759
-1.03561
-1.02572
-0.99722
-0.957087
-0.903245
-0.835278
-0.764707
-0.693593
-0.630776
-0.583564
-0.550151
-0.532285
-0.529751
-0.541659
-0.567501
-0.599381
-0.639615
-0.688955
-0.735454
-0.775768
-0.802339
-0.808377
-0.793959
-0.779499
-0.755104
-0.712894
-0.67757
-0.62865
-0.491931
-0.524642
-0.5658
-0.603992
-0.654708
-0.70578
-0.744857
-0.78722
-0.83329
-0.880433
-0.92546
-0.96679
-1.00031
-1.0238
-1.03626
-1.0367
-1.03079
-1.01474
-0.986151
-0.954222
-0.91853
-0.885572
-0.860892
-0.841616
-0.829119
-0.823321
-0.823198
-0.827789
-0.830049
-0.835245
-0.84773
-0.858093
-0.86451
-0.860861
-0.841864
-0.808656
-0.781611
-0.749527
-0.702613
-0.664011
-0.612583
-0.466874
-0.500897
-0.539069
-0.5753
-0.617548
-0.660434
-0.69849
-0.739662
-0.784131
-0.830393
-0.876433
-0.920745
-0.960453
-0.993764
-1.01964
-1.03707
-1.04839
-1.05143
-1.04514
-1.03465
-1.02024
-1.00528
-0.992499
-0.980592
-0.970504
-0.962325
-0.955341
-0.948706
-0.938895
-0.929088
-0.921947
-0.912575
-0.899366
-0.878587
-0.847237
-0.806028
-0.766069
-0.723471
-0.67523
-0.634063
-0.589188

POINT_DATA	1681
SCALARS T_zz double 1
LOOKUP_TABLE table0
-0.447093
-0.469549
-0.495731
-0.521392
-0.542275
-0.558531
-0.570612
-0.57504
-0.578306
-0.575732
-0.563087
-0.548018
-0.529696
-0.509185
-0.487664
-0.464388
-0.439687
-0.414612
-0.389737
-0.364466
-0.340856
-0.317315
-0.291611
-0.264425
-0.237771
-0.209024
-0.176033
-0.141929
-0.106217
-0.0701153
-0.0355811
-0.00369308
0.0254421
0.0503454
0.0696683
0.0838456
0.0933066
0.0978173
0.0976525
0.0944115
0.0888003
-0.476655
-0.497924
-0.526291
-0.55366
-0.572823
-0.585905
-0.595397
-0.595034
-0.59739
-0.591942
-0.569017
-0.543401
-0.513893
-0.483756
-0.456423
-0.430864
-0.407689
-0.388686
-0.37434
-0.36232
-0.355406
-0.349318
-0.338939
-0.325235
-0.311681
-0.292188
-0.261798
-0.226689
-0.185903
-0.141471
-0.0965764
-0.0528309
-0.0105007
0.0268742
0.0560945
0.0780232
0.0936657
0.102377
0.104278
0.102214
0.0973926
-0.513905
-0.538718
-0.569312
-0.596953
-0.614126
-0.622987
-0.626082
-0.616905
-0.60752
-0.587054
-0.546254
-0.501321
-0.453082
-0.406952
-0.368529
-0.338888
-0.320176
-0.314473
-0.320982
-0.335045
-0.357308
-0.382088
-0.402707
-0.41766
-0.427747
-0.425179
-0.404513
-0.372121
-0.32729
-0.272262
-0.211091
-0.14731
-0.0836099
-0.0257518
0.0214067
0.0577309
0.0839833
0.0999967
0.10666
0.107431
0.10394
-0.555523
-0.5852
-0.617892
-0.643696
-0.654927
-0.654428
-0.645375
-0.620946
-0.591945
-0.546203
-0.474624
-0.395785
-0.314332
-0.239849
-0.182078
-0.145928
-0.136171
-0.155197
-0.199653
-0.260475
-0.334614
-0.414495
-0.491289
-0.559336
-0.614682
-0.646317
-0.647353
-0.623684
-0.57444
-0.502215
-0.413201
-0.315068
-0.215165
-0.123097
-0.0462212
0.0141057
0.0584643
0.0873379
0.102603
0.108567
0.107624
-0.587732
-0.61163
-0.645749
-0.667333
-0.680929
-0.677647
-0.648706
-0.598905
-0.5322
-0.438577
-0.313786
-0.176375
-0.0356127
0.0894997
0.179693
0.225226
0.216343
0.151469
0.0398382
-0.10211
-0.269963
-0.449321
-0.623689
-0.784638
-0.930715
-1.03589
-1.07975
-1.07461
-1.01411
-0.905219
-0.763865
-0.604909
-0.43754
-0.283733
-0.160253
-0.0624122
0.0109744
0.0608389
0.0899462
0.104451
0.10767
-0.616486
-0.633367
-0.667427
-0.682745
-0.695393
-0.683633
-0.625274
-0.535028
-0.408193
-0.235672
-0.0187783
0.220429
0.462903
0.675201
0.822641
0.883914
0.840443
0.693119
0.462877
0.179962
-0.145982
-0.492795
-0.834438
-1.15428
-1.44885
-1.67722
-1.80309
-1.83507
-1.75333
-1.57292
-1.33126
-1.06239
-0.784934
-0.535315
-0.338731
-0.183344
-0.0664085
0.0145884
0.0644169
0.0919833
0.102212
-0.647999
-0.666058
-0.697853
-0.705385
-0.702416
-0.664422
-0.565293
-0.413923
-0.198076
0.0977213
0.471194
0.887285
1.30609
1.67353
1.93054
2.02746
1.92887
1.63883
1.19953
0.670256
0.0806397
-0.542401
-1.16598
-1.75052
-2.27207
-2.69278
-2.97294
-3.08227
-2.96976
-2.66363
-2.24145
-1.77818
-1.32124
-0.920835
-0.605266
-0.360912
-0.18058
-0.0560509
0.0227463
0.0687161
0.089748
-0.669602
-0.685261
-0.712307
-0.710658
-0.690164
-0.620269
-0.466754
-0.22788
0.122212
0.612087
1.24152
1.9549
2.67495
3.31913
3.78739
3.96702
3.78737
3.25644
2.45596
1.50796
0.485079
-0.58462
-1.66546
-2.67248
-3.53733
-4.26039
-4.82606
-5.09587
-4.93593
-4.4151
-3.69305
-2.90975
-2.15267
-1.49891
-0.989396
-0.607893
-0.335739
-0.151649
-0.0347881
0.0350429
0.0703412
-0.696477
-0.719261
-0.739344
-0.726674
-0.673894
-0.553071
-0.329028
0.0289929
0.564664
1.33798
2.36532
3.55821
4.76371
5.88242
6.62681
6.84081
6.64383
5.81674
4.40592
2.79018
1.10576
-0.63996
-2.39287
-4.03778
-5.44251
-6.65283
-7.50315
-7.80609
-7.79763
-7.17258
-5.96864
-4.71366
-3.42127
-2.29518
-1.49163
-0.906592
-0.519867
-0.272108
-0.107467
-0.00867541
0.0440721
-0.722207
-0.751258
-0.762951
-0.736786
-0.647164
-0.466693
-0.155111
0.355389
1.14017
2.3095
3.91549
5.85555
7.90987
9.92818
11.3585
11.7519
11.2271
9.6144
7.21437
4.63579
2.00391
-0.710237
-3.45154
-6.16624
-8.72494
-10.9796
-12.3487
-12.5425
-12.1828
-10.9046
-8.90085
-7.01022
-5.0631
-3.35381
-2.15662
-1.29381
-0.7482
-0.415103
-0.193173
-0.0610622
0.0114647
-0.739868
-0.764004
-0.767001
-0.725011
-0.605718
-0.370044
0.0415787
0.72944
1.82086
3.49167
5.84833
8.8184
12.0124
15.2923
17.6337
18.0957
17.338
14.8725
11.0089
7.13333
3.23174
-0.777714
-4.77564
-9.00442
-13.1397
-16.7762
-19.4689
-19.8957
-19.0515
-17.0209
-13.2804
-10.0203
-7.17215
-4.62176
-2.96888
-1.77583
-1.02352
-0.573913
-0.288147
-0.119966
-0.0265192
-0.763509
-0.784918
-0.78011
-0.721587
-0.570933
-0.278597
0.233932
1.10221
2.51396
4.72437
7.90371
11.9984
16.3909
20.8424
23.8086
24.1054
23.1889
20.0778
14.8649
9.71015
4.50356
-0.828682
-6.03282
-11.5816
-16.917
-21.4801
-25.126
-25.7281
-24.8055
-22.5729
-17.4521
-12.9854
-9.28199
-5.88973
-3.77913
-2.25853
-1.30189
-0.736283