# vtk DataFile Version 3.0
Gravity inversion using rectangular prisms
ASCII
DATASET UNSTRUCTURED_GRID

POINTS	1494	double
100	100	100
100	100	300
100	100	500
100	100	700
100	100	900
100	300	100
100	300	300
100	300	500
100	300	700
100	300	900
100	500	100
100	500	300
100	500	500
100	500	700
100	500	900
100	700	100
100	700	300
100	700	500
100	700	700
100	700	900
100	900	100
100	900	300
100	900	500
100	900	700
100	900	900
100	1100	100
100	1100	300
100	1100	500
100	1100	700
100	1100	900
100	1300	100
100	1300	300
100	1300	500
100	1300	700
100	1300	900
100	1500	100
100	1500	300
100	1500	500
100	1500	700
100	1500	900
100	1700	100
100	1700	300
100	1700	500
100	1700	700
100	1700	900
100	1900	100
100	1900	300
100	1900	500
100	1900	700
100	1900	900
300	100	100
300	100	300
300	100	500
300	100	700
300	100	900
300	300	100
300	300	300
300	300	500
300	300	700
300	300	900
300	500	100
300	500	300
300	500	500
300	500	700
300	500	900
300	700	100
300	700	300
300	700	500
300	700	700
300	700	900
300	900	100
300	900	300
300	900	500
300	900	700
300	900	900
300	1100	100
300	1100	300
300	1100	500
300	1100	700
300	1100	900
300	1300	100
300	1300	300
300	1300	500
300	1300	700
300	1300	900
300	1500	100
300	1500	300
300	1500	500
300	1500	700
300	1500	900
300	1700	100
300	1700	300
300	1700	500
300	1700	700
300	1700	900
300	1900	100
300	1900	300
300	1900	500
300	1900	700
300	1900	900
500	100	100
500	100	300
500	100	500
500	100	700
500	100	900
500	300	100
500	300	300
500	300	500
500	300	700
500	300	900
500	500	100
450	450	250
450	450	350
450	550	250
450	550	350
550	450	250
550	450	350
550	550	250
550	550	350
500	500	500
500	500	700
500	500	900
450	650	50
450	650	150
450	750	50
450	750	150
550	650	50
550	650	150
550	750	50
550	750	150
450	650	250
450	650	350
450	750	250
450	750	350
525	625	225
525	625	275
525	675	225
525	675	275
575	625	225
575	625	275
575	675	225
575	675	275
550	650	350
550	750	250
550	750	350
500	700	500
500	700	700
500	700	900
500	900	100
450	850	250
450	850	350
450	950	250
450	950	350
550	850	250
550	850	350
550	950	250
550	950	350
500	900	500
500	900	700
500	900	900
500	1100	100
500	1100	300
500	1100	500
500	1100	700
500	1100	900
500	1300	100
500	1300	300
500	1300	500
500	1300	700
500	1300	900
500	1500	100
500	1500	300
500	1500	500
500	1500	700
500	1500	900
500	1700	100
500	1700	300
500	1700	500
500	1700	700
500	1700	900
500	1900	100
500	1900	300
500	1900	500
500	1900	700
500	1900	900
700	100	100
700	100	300
700	100	500
700	100	700
700	100	900
700	300	100
650	250	250
650	250	350
650	350	250
650	350	350
750	250	250
750	250	350
750	350	250
750	350	350
700	300	500
700	300	700
700	300	900
650	450	50
650	450	150
650	550	50
650	550	150
750	450	50
750	450	150
750	550	50
750	550	150
650	450	250
650	450	350
625	525	225
625	525	275
625	575	225
625	575	275
675	525	225
675	525	275
675	575	225
675	575	275
650	550	350
750	450	250
750	450	350
725	525	225
725	525	275
725	575	225
725	575	275
775	525	225
775	525	275
775	575	225
775	575	275
750	550	350
650	450	450
650	450	550
650	550	450
650	550	550
750	450	450
750	450	550
750	550	450
750	550	550
700	500	700
700	500	900
650	650	50
625	625	125
625	625	175
625	675	125
625	675	175
675	625	125
675	625	175
675	675	125
675	675	175
650	750	50
625	725	125
625	725	175
625	775	125
625	775	175
675	725	125
675	725	175
675	775	125
675	775	175
725	625	25
725	625	75
725	675	25
725	675	75
775	625	25
775	625	75
775	675	25
775	675	75
725	625	125
725	625	175
725	675	125
725	675	175
775	625	125
775	625	175
775	675	125
775	675	175
750	750	50
725	725	125
725	725	175
725	775	125
725	775	175
775	725	125
775	725	175
775	775	125
775	775	175
650	650	250
650	650	350
650	750	250
650	750	350
750	650	250
750	650	350
750	750	250
750	750	350
650	650	450
650	650	550
650	750	450
650	750	550
750	650	450
750	650	550
750	750	450
750	750	550
700	700	700
700	700	900
650	850	50
650	850	150
650	950	50
650	950	150
750	850	50
750	850	150
750	950	50
750	950	150
650	850	250
650	850	350
650	950	250
650	950	350
750	850	250
750	850	350
750	950	250
750	950	350
650	850	450
650	850	550
650	950	450
650	950	550
750	850	450
750	850	550
750	950	450
750	950	550
700	900	700
700	900	900
700	1100	100
650	1050	250
650	1050	350
650	1150	250
650	1150	350
750	1050	250
750	1050	350
750	1150	250
750	1150	350
700	1100	500
700	1100	700
700	1100	900
700	1300	100
650	1250	250
650	1250	350
650	1350	250
650	1350	350
750	1250	250
750	1250	350
750	1350	250
750	1350	350
700	1300	500
700	1300	700
700	1300	900
700	1500	100
650	1450	250
650	1450	350
650	1550	250
650	1550	350
750	1450	250
750	1450	350
750	1550	250
750	1550	350
700	1500	500
700	1500	700
700	1500	900
700	1700	100
700	1700	300
700	1700	500
700	1700	700
700	1700	900
700	1900	100
700	1900	300
700	1900	500
700	1900	700
700	1900	900
900	100	100
900	100	300
900	100	500
900	100	700
900	100	900
900	300	100
900	300	300
900	300	500
900	300	700
900	300	900
850	450	50
850	450	150
850	550	50
850	550	150
950	450	50
950	450	150
950	550	50
950	550	150
850	450	250
850	450	350
825	525	225
825	525	275
825	575	225
825	575	275
875	525	225
875	525	275
875	575	225
875	575	275
850	550	350
950	450	250
950	450	350
950	550	250
950	550	350
850	450	450
850	450	550
850	550	450
850	550	550
950	450	450
950	450	550
950	550	450
950	550	550
900	500	700
900	500	900
850	650	50
825	625	125
825	625	175
825	675	125
825	675	175
875	625	125
875	625	175
875	675	125
875	675	175
850	750	50
825	725	125
825	725	175
825	775	125
825	775	175
875	725	125
875	725	175
875	775	125
875	775	175
950	650	50
950	650	150
950	750	50
950	750	150
850	650	250
850	650	350
850	750	250
850	750	350
950	650	250
950	650	350
950	750	250
950	750	350
850	650	450
850	650	550
850	750	450
850	750	550
950	650	450
950	650	550
950	750	450
950	750	550
900	700	700
900	700	900
850	850	50
850	850	150
850	950	50
850	950	150
950	850	50
950	850	150
950	950	50
950	950	150
825	825	225
825	825	275
825	875	225
825	875	275
875	825	225
875	825	275
875	875	225
875	875	275
850	850	350
850	950	250
850	950	350
950	850	250
950	850	350
950	950	250
950	950	350
850	850	450
850	850	550
850	950	450
850	950	550
950	850	450
950	850	550
950	950	450
950	950	550
900	900	700
900	900	900
900	1100	100
850	1050	250
850	1050	350
850	1150	250
850	1150	350
950	1050	250
950	1050	350
950	1150	250
950	1150	350
900	1100	500
900	1100	700
900	1100	900
850	1250	50
850	1250	150
850	1350	50
850	1350	150
950	1250	50
950	1250	150
950	1350	50
950	1350	150
850	1250	250
850	1250	350
825	1325	225
825	1325	275
825	1375	225
825	1375	275
875	1325	225
875	1325	275
875	1375	225
875	1375	275
850	1350	350
925	1225	225
925	1225	275
925	1275	225
925	1275	275
975	1225	225
975	1225	275
975	1275	225
975	1275	275
950	1250	350
925	1325	225
925	1325	275
925	1375	225
925	1375	275
975	1325	225
975	1325	275
975	1375	225
975	1375	275
950	1350	350
850	1250	450
850	1250	550
850	1350	450
850	1350	550
950	1250	450
950	1250	550
950	1350	450
950	1350	550
900	1300	700
900	1300	900
850	1450	50
850	1450	150
850	1550	50
850	1550	150
950	1450	50
950	1450	150
950	1550	50
950	1550	150
825	1425	225
825	1425	275
825	1475	225
825	1475	275
875	1425	225
875	1425	275
875	1475	225
875	1475	275
850	1450	350
850	1550	250
850	1550	350
925	1425	225
925	1425	275
925	1475	225
925	1475	275
975	1425	225
975	1425	275
975	1475	225
975	1475	275
950	1450	350
925	1525	225
925	1525	275
925	1575	225
925	1575	275
975	1525	225
975	1525	275
975	1575	225
975	1575	275
950	1550	350
850	1450	450
850	1450	550
850	1550	450
850	1550	550
950	1450	450
950	1450	550
950	1550	450
950	1550	550
900	1500	700
900	1500	900
900	1700	100
850	1650	250
850	1650	350
850	1750	250
850	1750	350
950	1650	250
950	1650	350
950	1750	250
950	1750	350
900	1700	500
900	1700	700
900	1700	900
900	1900	100
900	1900	300
900	1900	500
900	1900	700
900	1900	900
1100	100	100
1100	100	300
1100	100	500
1100	100	700
1100	100	900
1100	300	100
1100	300	300
1100	300	500
1100	300	700
1100	300	900
1100	500	100
1050	450	250
1050	450	350
1050	550	250
1050	550	350
1150	450	250
1150	450	350
1150	550	250
1150	550	350
1050	450	450
1050	450	550
1050	550	450
1050	550	550
1150	450	450
1150	450	550
1150	550	450
1150	550	550
1100	500	700
1100	500	900
1050	650	50
1050	650	150
1050	750	50
1050	750	150
1150	650	50
1150	650	150
1150	750	50
1150	750	150
1050	650	250
1050	650	350
1050	750	250
1050	750	350
1125	625	225
1125	625	275
1125	675	225
1125	675	275
1175	625	225
1175	625	275
1175	675	225
1175	675	275
1150	650	350
1150	750	250
1150	750	350
1050	650	450
1050	650	550
1050	750	450
1050	750	550
1150	650	450
1150	650	550
1150	750	450
1150	750	550
1100	700	700
1100	700	900
1100	900	100
1050	850	250
1050	850	350
1050	950	250
1050	950	350
1150	850	250
1150	850	350
1150	950	250
1150	950	350
1100	900	500
1100	900	700
1100	900	900
1100	1100	100
1050	1050	250
1050	1050	350
1050	1150	250
1050	1150	350
1150	1050	250
1150	1050	350
1150	1150	250
1150	1150	350
1050	1050	450
1050	1050	550
1050	1150	450
1050	1150	550
1150	1050	450
1150	1050	550
1150	1150	450
1150	1150	550
1100	1100	700
1100	1100	900
1050	1250	50
1050	1250	150
1025	1325	25
1025	1325	75
1025	1375	25
1025	1375	75
1075	1325	25
1075	1325	75
1075	1375	25
1075	1375	75
1025	1325	125
1025	1325	175
1025	1375	125
1025	1375	175
1075	1325	125
1075	1325	175
1075	1375	125
1075	1375	175
1150	1250	50
1150	1250	150
1150	1350	50
1150	1350	150
1050	1250	250
1050	1250	350
1050	1350	250
1050	1350	350
1150	1250	250
1150	1250	350
1150	1350	250
1150	1350	350
1050	1250	450
1050	1250	550
1050	1350	450
1050	1350	550
1150	1250	450
1150	1250	550
1150	1350	450
1150	1350	550
1100	1300	700
1100	1300	900
1025	1425	25
1025	1425	75
1025	1475	25
1025	1475	75
1075	1425	25
1075	1425	75
1075	1475	25
1075	1475	75
1025	1425	125
1025	1425	175
1025	1475	125
1025	1475	175
1075	1425	125
1075	1425	175
1075	1475	125
1075	1475	175
1050	1550	50
1025	1525	125
1025	1525	175
1025	1575	125
1025	1575	175
1075	1525	125
1075	1525	175
1075	1575	125
1075	1575	175
1150	1450	50
1150	1450	150
1150	1550	50
1150	1550	150
1050	1450	250
1050	1450	350
1050	1550	250
1050	1550	350
1150	1450	250
1150	1450	350
1150	1550	250
1150	1550	350
1050	1450	450
1050	1450	550
[...]
CELL_DATA	1494
SCALARS model double 1
LOOKUP_TABLE table0
0.0110598
1.50549
-6.94992
-3.29576
-2.0745
0.114997
-2.1352
0.432355
-2.33157
-1.79373
-0.0249736
0.779546
-1.75748
-4.97879
-2.28858
0.0342252
-0.0104402
-20.6171
-8.85488
-2.91262
0.00236199
-0.0575831
3.0989
-4.82203
-2.35414
0.052666
-1.22407
-1.38154
-3.32052
-1.89531
-0.0107713
3.30631
-11.4872
-4.94417
-2.00238
0.108701
-0.18456
-6.94257
-3.87869
-1.71637
0.036156
0.234967
7.86231
-0.0993729
-1.0672
0.061691
-1.16191
1.18584
-0.510433
-1.24205
0.0464356
-0.258813
-5.46647
-2.46544
-1.20003
0.0351029
-1.28637
-4.08082
-0.738778
0.512397
0.0254155
-4.87111
1.1237
2.39436
2.62711
0.04209
-4.34112
-5.22772
2.82842
3.53128
0.0279735
-4.55077
-3.95083
1.32253
2.73442
0.00320808
-0.261901
-8.20311
-1.67014
1.11751
0.0405327
-1.76528
-8.69228
-2.92963
-0.0675537
0.0735596
2.19501
-5.11985
-2.82478
-0.77774
-0.0156972
0.417668
-8.37017
-3.15293
-1.66093
-0.0216644
1.39716
-6.49758
-2.83028
-2.34853
-0.0198259
0.146525
-5.21148
-2.53504
-0.542461
0.0308265
-5.61371
-3.78562
4.01072
3.76895
0.0172228
-25.0272
-0.341348
-13.9714
12.2208
-16.5627
28.5506
110.718
81.1318
26.6551
19.2902
10.0291
0.506888
-0.636044
0.319347
0.670985
-1.37985
3.02205
-0.818352
4.23335
-28.7296
23.7135
-14.7708
25.1169
151.57
151.498
151.546
151.488
151.557
151.516
151.558
151.517
120.999
138.698
117.503
47.1305
28.1642
13.3702
0.108659
-5.22332
12.1002
-24.4901
-1.32294
89.1066
76.0092
10.2686
30.3009
19.7518
17.8589
10.8001
0.0134721
-7.38819
-10.6874
4.47177
6.31298
-0.00397991
-1.41812
-6.71377
1.10252
3.73791
0.0711412
-5.46306
-5.7005
-0.281482
1.74323
0.00977947
1.09419
-7.48866
-3.42139
-1.30829
0.0374269
-1.3605
9.84846
-3.21852
-3.33485
-0.0032901
-1.25613
-6.5741
-3.07154
-0.430309
0.0729769
-1.80613
-9.55951
-34.2099
5.0792
0.944898
-8.1079
-49.3009
6.49514
-0.917486
8.87518
5.64382
1.02169
2.55992
1.9492
2.71624
2.14443
0.70977
2.38322
3.25186
39.9975
72.9821
197.453
197.438
197.48
197.463
197.48
197.445
197.485
197.463
161.559
81.994
93.5909
249.336
249.307
249.346
249.326
249.302
249.291
249.331
249.317
194.758
92.3183
92.3598
92.3365
92.3598
92.2762
92.3449
92.3123
92.353
37.5413
14.7701
-13.1319
192.148
192.334
192.214
192.352
192.3
192.355
192.206
192.333
-9.6431
136.002
136.073
136.107
136.096
135.905
136.017
135.978
136.027
-15.2998
-17.6035
-20.8478
-18.8192
-15.908
-17.5781
-19.492
-18.4959
243.581
243.574
243.399
243.536
243.593
243.563
243.439
243.529
-16.1691
183.728
183.863
183.895
183.884
183.824
183.874
184.086
183.92
256.236
218.63
229.974
213.348
295.787
255.93
267.719
251.047
94.8659
77.4012
92.5567
78.7837
104.548
83.7998
101.696
84.8846
55.1763
20.0233
-3.52036
66.5975
0.166276
-8.9004
-5.47156
110.773
-0.794014
1.46004
148.041
153.465
32.9842
71.1191
184.606
186.883
56.8975
90.8223
72.2029
72.2235
72.2028
72.2301
72.2483
72.2498
72.2657
72.2616
36.6394
16.9329
0.069432
-34.2999
-1.85735
3.78511
-26.9539
-19.8335
-2.0754
-14.9457
-30.8189
-3.4846
14.6691
12.0075
0.0661439
-17.2855
-18.2923
-15.2293
-17.6857
-19.4348
-18.5602
-20.3547
-18.5612
12.3121
13.6502
10.2179
0.106914
-1.0071
-10.3117
-2.47441
-13.5496
-46.4428
11.1671
-32.6293
-1.71572
8.28637
10.599
7.27157
0.0849137
-4.09379
-5.32941
-1.65383
0.527632
0.010391
2.25067
-15.9503
-9.92834
-4.63824
-0.0107808
0.047955
-9.25684
-3.92989
-1.18993
0.0114572
-5.20691
8.86848
6.50778
3.19221
2.06715
-5.3968
1.18744
1.48285
0.136666
2.59235
-0.206897
1.72848
45.2457
72.2697
217.318
217.317
217.356
217.349
217.33
217.323
217.356
217.351
167.764
-35.3321
23.5794
108.609
93.5921
63.2959
63.371
63.34
63.3813
63.3522
63.3842
63.3744
63.3906
25.5031
9.2535
-14.458
190.958
190.948
190.802
190.909
190.7
190.891
190.457
190.836
-13.7953
178.785
178.874
179.091
178.952
178.419
178.811
178.868
178.929
-3.6268
27.5393
-3.92745
29.3596
252.709
226.08
238.532
223.984
125.997
134.086
121.364
133.882
89.6803
70.0782
87.7497
71.1228
61.6257
52.4814
61.9106
54.2832
38.1479
13.2515
1.66025
1.47499
-0.195067
1.03872
0.674815
1.26639
0.0485079
-0.290188
181.588
181.585
181.584
181.587
181.611
181.597
181.621
181.604
165.793
52.4304
75.6228
105.425
95.122
6.51202
34.4771
55.6092
55.5789
55.6592
55.5998
55.6539
55.5991
55.7229
55.6248
27.6112
13.2812
0.196214
-24.4984
-6.74541
-41.4594
-15.5974
-40.8292
-12.5463
-24.7896
8.49041
7.37241
21.4533
14.4965
0.594004
4.49176
3.74536
-0.582784
1.90215
1.8062
3.40716
3.71876
9.11023
39.9214
158.26
158.386
158.228
158.383
158.452
158.46
158.444
158.458
102.384
97.0815
97.0535
97.0735
97.0411
97.0147
97.0326
97.0363
97.0338
101.004
274.86
274.839
274.873
274.843
274.85
274.844
274.867
274.851
180.065
83.92
83.9199
83.8663
83.9002
83.9261
83.9182
83.8608
83.8893
36.7268
17.9862
3.89563
1.32818
0.317121
6.48803
5.51668
3.82338
2.1064
0.909667
149.221
149.327
149.398
149.384
149.394
149.386
149.459
149.408
105.498
9.60116
60.4993
277.206
277.169
277.199
277.162
277.19
277.173
277.164
277.158
184.06
102.688
102.657
102.554
102.602
102.633
102.647
102.521
102.603
119.845
79.1193
79.1599
79.0905
79.1497
79.1064
79.1484
79.0928
79.1452
33.176
15.2988
0.107507
-11.762
-9.91724
-8.76337
-9.4096
-10.5529
-9.67422
-7.0106
-9.08201
-0.363197
4.88138
4.26686
-0.0167872
3.46379
-25.0844
-11.9536
-4.17476
-0.0390479
1.34402
1.12276
-2.21352
-2.0825
-0.000367532
1.92031
5.11504
-2.9637
-2.60548
-0.0916894
25.4197
-7.16656
29.6206
-5.94825
11.244
-46.1991
-96.8815
-97.7388
-28.3606
-28.3757
-28.3817
-28.3781
-28.3796
-28.3841
-28.4242
-28.3902
-12.4929
-4.63995
-0.50025
1.20391
-0.690206
1.74851
1.59478
-1.94932
-0.144158
-0.932988
-12.4987
-7.00931
-25.5384
-8.76891
-147.135
-147.095
-147.097
-147.077
-147.189
-147.127
-147.132
-147.102
-132.232
-139.64
-132.956
-59.3388
-59.3354
-59.284
-59.3058
-59.3821
-59.3486
-59.3178
-59.3193
-18.637
-4.89098
-0.300017
11.9926
-12.8764
5.94763
-18.3437
-71.3238
-106.905
4.05315
-63.3632
-30.7416
-8.65599
0.491204
-0.179648
-17.4381
-12.5147
-11.461
35.3842
5.86745
-10.566
1.66802
53.9863
11.6159
11.5147
11.5239
11.4835
11.5373
11.4866
11.4456
11.4555
18.0029
11.7109
-2.12027
25.3482
-10.4973
-13.6045
-14.5661
-14.5602
-12.4521
-14.061
-15.1076
-14.6271
222.685
222.72
222.604
222.742
222.621
222.706
222.59
222.733
0.313749
11.0819
-1.86337
116.017
120.355
140.299
257.854
216.78
114.195
156.324
221.587
224.693
122.742
122.759
122.703
122.736
122.694
122.74
122.689
122.73
52.6868
22.383
-13.9716
-13.8927
-11.1883
-13.3292
-14.8191
-13.9406
-11.2911
-13.2067
233.893
234.043
233.904
234.013
233.906
234.046
233.968
234.042
-2.27722
20.9422
21.0704
20.6111
20.9085
21.1691
21.1574
21.2628
21.1386
-5.33728
118.616
-0.187056
22.491
259.929
218.076
121.555
142.735
221.522
223.154
114.919
148.775
124.186
124.223
124.184
124.222
124.2
124.227
124.211
124.231
50.6488
21.194
0.531539
-2.53498
0.0647682
0.517196
-0.315903
2.27904
-0.0282849
0.309992
-17.2126
32.83
-6.09634
-6.92124
-1.68727
37.9507
-21.4571
-10.2115
1.98397
1.99488
2.05299
2.01316
1.9759
1.99477
1.94818
1.9938
11.7223
7.83069
-0.00779881
1.70461
-24.152
-7.99547
-2.0058
-0.0337381
1.61032
5.10899
-0.450872
-2.37045
-0.189852
-3.74312
4.11735
55.4954
-5.22049
6.15941
5.66212
40.6536
-8.12155
-0.253893
-10.2703
-6.93086
-0.548149
-2.13405
-0.92017
-4.6197
-0.816728
0.779443
-2.88179
-2.3869
-30.6026
-78.5792
-201.464
-201.359
-201.457
-201.372
-201.41
-201.349
-201.412
-201.362
-171.608
-59.0571
-90.0072
-257.029
-257.005
-257.045
-257.022
-257.003
-256.991
-257.033
-257.01
-195.012
-98.8422
-98.8233
-98.88
-98.8285
-98.8535
-98.8282
-98.8708
-98.8294
-41.1813
-15.3906
13.9763
-166.464
-166.38
-166.27
-166.285
-166.21
-166.311
-166.081
-166.247
6.8794
-106.375
-106.337
-106.543
-106.33
-106.12
-106.289
-106.181
-106.269
18.1255
18.0562
19.6271
18.3813
14.3591
17.0293
16.7722
17.5785
-305.55
-305.669
-305.498
-305.648
-305.742
-305.707
-305.673
-305.697
20.1555
19.1358
19.8617
18.9012
16.3509
18.1081
13.9735
17.5906
-220.546
-220.686
-220.54
-220.649
-220.774
-220.752
-220.79
-220.721
-264.556
-228.355
-237.762
-228.742
-327.928
-261.368
-300.43
-261.846
-97.8117
-77.0508
-94.5447
-76.7148
-109.54
-87.0904
-105.884
-86.4086
-61.6441
-19.2931
4.72386
-48.3158
0.175092
14.8498
8.11723
-137.922
-138.063
-137.586
-137.978
-138.152
-138.136
-137.755
-138.022
0.541205
22.6552
-155.309
-183.628
-56.8063
-107.808
-210.857
-206.824
-78.1038
-117.942
-72.3575
-60.4616
-48.6082
-45.9417
-79.8547
-67.0512
-53.8723
-51.6331
-37.3948
-10.7206
0.0775347
-21.3414
-17.6519
2.3607
62.7879
-7.67137
-14.1099
15.788
62.2853
18.6832
9.35666
6.29481
2.2198
8.06364
-4.83322
117.633
-2.41387
23.2201
-11.6006
-11.8946
-10.4782
-11.5853
-10.8186
-11.8197
-10.5361
-11.5525
227.095
227.216
227.219
227.284
227.121
227.253
227.248
227.314
116.064
162.364
221.461
226.039
131.846
152.683
259.316
216.89
77.9406
72.6203
99.2516
88.4365
74.2577
69.652
95.403
84.9323
50.93
20.5253
0.433522
115.621
-2.73897
27.6456
-12.074
-12.3486
-12.2186
-12.5982
-12.0519
-12.3503
-10.3153
-12.0946
226.004
226.094
225.926
226.081
226.045
226.131
226.057
226.137
-3.55306
28.3073
220.143
222.317
115.449
147.696
256.853
213.228
122.862
138.456
121.621
121.638
121.645
121.648
121.645
121.65
121.686
121.667
50.6004
20.8041
-0.0457683
3.5188
38.4915
-5.88604
-8.52704
-13.8197
32.4639
-13.7458
-4.73442
2.36668
2.36808
2.33862
2.36311
2.43343
2.39353
2.46304
2.39468
12.9025
8.3002
-0.029768
-0.274631
-15.8749
-4.0185
-0.613207
-0.0115558
0.263176
14.085
1.38766
-1.54054
-0.0251715
5.7354
9.13962
-7.05182
-6.25173
-1.46883
0.858416
-6.18837
-2.63984
-0.706484
-4.50235
-2.77589
-0.98043
-27.1397
-63.7324
-227.582
-227.574
-227.621
-227.591
-227.563
-227.561
-227.583
-227.566
-159.278
65.4542
-19.8845
-88.2447
-88.2392
-88.2126
-88.2167
-88.1913
-88.2123
-88.0907
-88.1628
-91.5752
-65.3176
-65.2862
-65.303
-65.2824
-65.3327
-65.2864
-65.278
-65.2776
-33.6914
-14.698
-8.71257
-7.88188
-7.28715
-8.04069
-5.68184
-4.63404
-6.41619
-3.86564
-300.064
-300.038
-300.057
-300.034
-300.026
-300.01
-300.021
-300.005
-224.588
-285.807
-285.783
-285.795
-285.773
-285.776
-285.757
-285.772
-285.75
-225.671
-147.981
-147.993
-147.968
-147.984
-147.84
-147.932
-147.829
-147.926
-139.104
-147.62
-147.639
-147.619
-147.637
-147.476
-147.582
-147.457
-147.574
-141.16
-139.091
-139.098
-139.053
-139.079
-139.048
-139.091
-139.017
-139.076
-52.3402
-18.983
-3.64846
-1.85493
-0.13018
-0.29504
-3.06269
1.17654
0.265913
-1.81969
-205.464
-205.445
-205.432
-205.433
-205.463
-205.433
-205.454
-205.432
-171.551
-39.5299
-95.216
-89.6883
-102.465
53.9284
-48.0297
-62.1417
-62.167
-62.1638
-62.1707
-62.1258
-62.1702
-62.1782
-62.1786
-32.3084
-11.9844
0.00845592
1.57411
1.10385
1.89452
1.16392
-0.33219
0.9275
0.806723
1.1077
7.82989
3.39477
2.01774
2.16592
4.35164
4.90274
3.684
0.922106
5.57424
3.63816
1.78308
110.359
110.33
110.36
110.335
110.451
110.357
110.429
110.354
105.886
277.758
277.746
277.765
277.751
277.788
277.75
277.764
277.74
175.267
-30.3365
-30.4379
-30.3661
-30.4504
-30.4144
-30.4578
-30.4589
-30.482
42.9344
163.579
163.549
163.509
163.518
163.43
163.487
163.308
163.429
108.609
76.3002
33.2439
13.4479
5.45653
4.17149
1.59438
5.2968
4.68045
-0.255741
1.13771
3.94652
273.503
273.487
273.517
273.495
273.489
273.469
273.514
273.483
175.372
104.723
104.679
104.727
104.686
104.774
104.692
104.88
104.741
112.224
152.233
152.26
152.267
152.282
152.001
152.157
152.017
152.178
109.848
-21.1364
60.9373
74.1144
74.1195
74.1887
74.1426
74.0753
74.1223
74.1775
74.1453
33.0332
14.0955
-0.00907303
-4.86808
-5.42261
-7.41594
-5.59808
-2.03368
-5.23134
-5.94282
-5.86909
-1.73314
6.98635
4.9587
-0.0118734
-0.895507
-7.44442
-3.76982
-1.4428
-0.00763844
0.514513
-0.371072
1.86739
0.215965
-0.000404862
2.23617
6.32064
0.098298
-1.93971
0.109291
7.41758
8.79205
10.5529
9.24378
8.59235
9.01516
10.7014
9.12735
-4.19293
-8.20909
-6.08334
0.340163
3.97733
-40.0076
2.09728
-40.5024
21.5963
3.54887
24.349
5.17713
-7.17624
-7.18475
-7.15738
-7.17221
-7.29243
-7.20283
-7.26247
-7.18582
-14.8696
-8.7874
0.0814463
7.96754
-8.4339
-10.7574
-6.48793
0.00325695
-1.52158
1.68536
-0.574857
-0.709874
0.0207824
-9.09777
-9.90736
-12.4951
-10.4767
-5.24826
-9.3718
-11.1787
-10.0551
18.7581
9.60742
4.36012
-0.0232419
-12.6005
-10.112
-11.1501
-9.64524
-8.77074
-9.56083
-5.88408
-9.1731
12.9365
8.98267
4.53924
-0.0062215
-3.6609
-1.08932
-1.63655
-0.341919
0.00947443
-0.537281
-4.33872
-6.13069
-3.65288
-0.00110909
-0.229573
4.82536
4.492
1.97001
0.00242349
0.439589
2.22766
4.44845
1.50783
0.00440754
0.733396
10.7751
4.37397
0.170169
-0.00879286
0.441305
17.546
1.58052
-1.81794
-0.0177751
0.716112
12.6878
-1.02335
-2.68758
-0.00994329
1.00135
-9.41578
-4.54689
-2.33514
0.0125722
-1.14347
-8.20714
-3.68554
-1.22411
-0.0357286
-0.690755
-6.91717
-2.83662
-1.14526
-0.0236116
-0.205142
-5.73893
-6.44097
-3.4152
-0.0964028
3.48982
-12.1509
-7.96568
-4.70402
SCALARS m0 double 1
LOOKUP_TABLE table1
0
0
0
0
0
0
0
0
0
0
0
0
0
0
0
0
0
0
0
0
0
0
0
0
0
0
0
0
0
0
0
0
0
0
0
0
0
0
0
0
0
0
0
0
0
0
0
0
0
0
0
0
0
0
0
0
0
0
0
0
0
0
0
0
0
0
0
0
0
0
0
0
0
0
0
0
0
0
0
0
0
0
0
0
0
0
0
0
0
0
0
0
0
0
0
0
0
0
0
0
0
0
0
0
0
0
0
0
0
0
0
0
0
0
0
0
0
0
0
0
0
0
0
0
0
0
0
0
0
0
0
0
0
0
0
0
0
0
0
0
0
0
0
0
0
0
0
0
0
0
0
0
0
0
0
0
0
0
0
0
0
0
0
0
0
0
0
0
0
0
0
0
0
0
0
0
0
0
0
0
0
0
0
0
0
0
0
0
0
0
0
0
0
0
0
0
0
0
0
0
0
0
0
0
0
0
0
0
0
0
0
0
0
0
0
0
0
0
0
0
0
0
0
0
0
0
0
0
0
0
0
0
0
0
0
0
0
0
0
0
0
0
0
0
0
0
0
0
0
0
0
0
0
0
0
0
0
0
0
0
0
0
0
0
0
0
0
0
0
0
0
0
0
0
0
0
0
0
0
0
0
0
0
0
0
0
0
0
0
0
0
0
0
0
0
0
0
0
0
0
0
0
0
0
0
0
0
0
0
0
0
0
0
0
0
0
0
0
0
0
0
0
0
0
0
0
0
0
0
0
0
0
0
0
0
0
0
0
0
0
0
0
0
0
0
0
0
0
0
0
0
0
0
0
0
0
0
0
0
0
0
0
0
0
0
0
0
0
0
0
0
0
0
0
0
0
0
0
0
0
0
0
0
0
0
0
0
0
0
0
0
0
0
0
0
0
0
0
0
0
0
0
0
0
0
0
0
0
0
0
0
0
0
0
0
0
0
0
0
0
0
0
0
0
0
0
0
0
0
0
0
0
0
0
0
0
0
0
0
0
0
0
0
0
0
0
0
0
0
0
0
0
0
0
0
0
0
0
0
0
0
0
0
0
0
0
0
0
0
0
0
0
0
0
0
0
0
0
0
0
0
0
0
0
0
0
0
0
0
0
0
0
0
0
0
0
0
0
0
0
0
0
0
0
0
0
0
0
0
0
0
0
0
0
0
0
0
0
0
0
0
0
0
0
0
0
0
0
0
0
0
0
0
0
0
0
0
0
0
0
0
0
0
0
0
0
0
0
0
0
0
0
0
0
0
0
0
0
0
0
0
0
0
0
0
0
0
0
0
0
0
0
0
0
0
0
0
0
0
0
0
0
0
0
0
0
0
0
0
0
0
0
0
0
0
0
0
0
0
0
0
0
0
0
0
0
0
0
0
0
0
0
0
0
0
0
0
0
0
0
0
0
0
0
0
0
0
0
0
0
0
0
0
0
0
0
0
0
0
0
0
0
0
0
0
0
0
0
0
0
0
0
0
0
0
0
0
0
0
0
0
0
0
0
0
0
0
0
0
0
0
0
0
0
0
0
0
0
0
0
0
0
0
0
0
0
0
0
0
0
0
0
0
0
0
0
0
0
0
0
0
0
0
0
0
0
0
0
0
0
0
0
0
0
0
0
0
0
0
0
0
0
0
0
0
0
0
0
0
0
0
0
0
0
0
0
0
0
0
0
0
0
0
0
0
0
0
0
0
0
0
0
0
0
0
0
0
0
0
0
0
0
0
0
0
0
0
0
0
0
0
0
0
0
0
0
0
0
0
0
0
0
0
0
0
0
0
0
0
0
0
0
0
0
0
0
0
0
0
0
0
0
0
0
0
0
0
0
0
0
0
0
0
0
0
0
0
0
0
0
0
0
0
0
0
0
0
0
0
0
0
0
0
0
0
0
0
0
0
0
0
0
0
0
0
0
0
0
0
0
0
0
0
0
0
0
0
0
0
0
0
0
0
0
0
0
0
0
0
0
0
0
0
0
0
0
0
0
0
0
0
0
0
0
0
0
0
0
0
0
0
0
0
0
0
0
0
0
0
0
0
0
0
0
0
0
0
0
0
0
0
0
0
0
0
0
0
0
0
0
0
0
0
0
0
0
0
0
0
0
0
0
0
0
0
0
0
0
0
0
0
0
0
0
0
0
0
0
0
0
0
0
0
0
0
0
0
0
0
0
0
0
0
0
0
0
0
0
0
0
0
0
0
0
0
0
0
0
0
0
0
0
0
0
0
0
0
0
0
0
0
0
0
0
0
0
0
0
0
0
0
0
0
0
0
0
0
0
0
0
0
0
0
0
0
0
0
0
0
0
0
0
0
0
0
0
0
0
0
0
0
0
0
0
0
0
0
0
0
0
0
0
0
0
0
0
0
0
0
0
0
0
0
0
0
0
0
0
0
0
0
0
0
0
0
0
0
0
0
0
0
0
0
0
0
0
0
0
0
0
0
0
0
0
0
0
0
0
0
0
0
0
0
0
0
0
0
0
0
0
0
0
0
0
0
0
0
0
0
0
0
0
0
0
0
0
0
0
0
0
0
0
0
0
0
0
0
0
0
0
0
0
0
0
0
0
0
0
0
0
0
0
0
0
0
0
0
0
0
0
0
0
0
0
0
0
0
0
0
0
0
0
0
0
0
0
0
0
0
0
0
0
0
0
0
0
0
0
0
0
0
0
0
0
0
0
0
0
0
0
0
0
0
0
0
0
0
0
0
0
0
0
0
0
0
0
0
0
0
0
0
0
0
0
0
0
0
0
0
0
0
0
0
0
0
0
0
0
0
0
0
0
0
0
0
0
0
0
0
0
0
0
0
0
0
0
0
0
0
0
0
0
0
0
0
0
0
0
0
0
0
0
0
0
0
0
0
0
0
0
0
0
0
0
0
0
0
0
0
0
0
0
0
0
0
0
0
0
0
0
0
0
0
0
0
0
0
0
0
0
0
0
0
0
0
0
0
0
0
0
0
0
0
0
0
0
0
0
0
0
0
0
0
0
0
0
0
0
0
0
0
0
0
0
0
0
0
0
0
0
0
0
0
0
0
0
0
0
0
0
0
0
0
0
0
0
0
0
0
0
0
0
0
0
0
0
0
0
0
0
0
0
0
0
0
0
0
0
0
0
0
0
0
0
0
0
0
0
0
0
0
0
0
0
0
0
0
0
0
0
0
0
0
0
0
0
0
0
0
0
0
0
0
0
0
0
0
0
0
0
0
0
0
0
0
0
0
0
0
0
0
0
0
0
0
0
0
0
0
0
0
0
0
0
0
0
0
0
0
0
0
0
0
0
0
0
0
0
0
0
0
0
0
0
0
0
0
0
0
0
0
0
0
0
0
0
0
0
0
0
0
0
0
0
0
0
0
0
0
0
0
0
0
0
SCALARS m0s double 1
LOOKUP_TABLE table2
0
0
0
0
0
0
0
0
0
0
0
0
0
0
0
0
0
0
0
0
0
0
0
0
0
0
0
0
0
0
0
0
0
0
0
0
0
0
0
0
0
0
0
0
0
0
0
0
0
0
0
0
0
0
0
0
0
0
0
0
0
0
0
0
0
0
0
0
0
0
0
0
0
0
0
0
0
0
0
0
0
0
0
0
0
0
0
0
0
0
0
0
0
0
0
0
0
0
0
0
0
0
0
0
0
0
0
0
0
0
0
0
0
0
0
0
0
0
0
0
0
0
0
0
0
0
0
0
0
0
0
0
0
0
0
0
0
0
0
0
0
0
0
0
0
0
0
0
0
0
0
0
0
0
0
0
0
0
0
0
0
0
0
0
0
0
0
0
0
0
0
0
0
0
0
0
0
0
0
0
0
0
0
0
0
0
0
0
0
0
0
0
0
0
0
0
0
0
0
0
0
0
0
0
0
0
0
0
0
0
0
0
0
0
0
0
0
0
0
0
0
0
0
0
0
0
0
0
0
0
0
0
0
0
0
0
0
0
0
0
0
0
0
0
0
0
0
0
0
0
0
0
0
0
0
0
0
0
0
0
0
0
0
0
0
0
0
0
0
0
0
0
0
0
0
0
0
0
0
0
0
0
0
0
0
0
0
0
0
0
0
0
0
0
0
0
0
0
0
0
0
0
0
0
0
0
0
0
0
0
0
0
0
0
0
0
0
0
0
0
0
0
0
0
0
0
0
0
0
0
0
0
0
0
0
0
0
0
0
0
0
0
0
0
0
0
0
0
0
0
0
0
0
0
0
0
0
0
0
0
0
0
0
0
0
0
0
0
0
0
0
0
0
0
0
0
0
0
0
0
0
0
0
0
0
0
0
0
0
0
0
0
0
0
0
0
0
0
0
0
0
0
0
0
0
0
0
0
0
0
0
0
0
0
0
0
0
0
0
0
0
0
0
0
0
0
0
0
0
0
0
0
0
0
0
0
0
0
0
0
0
0
0
0
0
0
0
0
0
0
0
0
0
0
0
0
0
0
0
0
0
0
0
0
0
0
0
0
0
0
0
0
0
0
0
0
0
0
0
0
0
0
0
0
0
0
0
0
0
0
0
0
0
0
0
0
0
0
0
0
0
0
0
0
0
0
0
0
0
0
0
0
0
0
0
0
0
0
0
0
0
0
0
0
0
0
0
0
0
0
0
0
0
0
0
0
0
0
0
0
0
0
0
0
0
0
0
0
0
0
0
0
0
0
0
0
0
0
0
0
0
0
0
0
0
0
0
0
0
0
0
0
0
0
0
0
0
0
0
0
0
0
0
0
0
0
0
0
0
0
0
0
0
0
0
0
0
0
0
0
0
0
0
0
0
0
0
0
0
0
0
0
0
0
0
0
0
0
0
0
0
0
0
0
0
0
0
0
0
0
0
0
0
0
0
0
0
0
0
0
0
0
0
0
0
0
0
0
0
0
0
0
0
0
0
0
0
0
0
0
0
0
0
0
0
0
0
0
0
0
0
0
0
0
0
0
0
0
0
0
0
0
0
0
0
0
0
0
0
0
0
0
0
0
0
0
0
0
0
0
0
0
0
0
0
0
0
0
0
0
0
0
0
0
0
0
0
0
0
0
0
0
0
0
0
0
0
0
0
0
0
0
0
0
0
0
0
0
0
0
0
0
0
0
0
0
0
0
0
0
0
0
0
0
0
0
0
0
0
0
0
0
0
0
0
0
0
0
0
0
0
0
0
0
0
0
0
0
0
0
0
0
0
0
0
0
0
0
0
0
0
0
0
0
0
0
0
0
0
0
0
0
0
0
0
0
0
0
0
0
0
0
0
0
0
0
0
0
0
0
0
0
0
0
0
0
0
0
0
0
0
0
0
0
0
0
0
0
0
0
0
0
0
0
0
0
0
0
0
0
0
0
0
0
0
0
0
0
0
0
0
0
0
0
0
0
0
0
0
0
0
0
0
0
0
0
0
0
0
0
0
0
0
0
0
0
0
0
0
0
0
0
0
0
0
0
0
0
0
0
0
0
0
0
0
0
0
0
0
0
0
0
0
0
0
0
0
0
0
0
0
0
0
0
0
0
0
0
0
0
0
0
0
0
0
0
0
0
0
0
0
0
0
0
0
0
0
0
0
0
0
0
0
0
0
0
0
0
0
0
0
0
0
0
0
0
0
0
0
0
0
0
0
0
0
0
0
0
0
0
0
0
0
0
0
0
0
0
0
0
0
0
0
0
0
0
0
0
0
0
0
0
0
0
0
0
0
0
0
0
0
0
0
0
0
0
0
0
0
0
0
0
0
0
0
0
0
0
0
0
0
0
0
0
0
0
0
0
0
0
0
0
0
0
0
0
0
0
0
0
0
0
0
0
0
0
0
0
0
0
0
0
0
0
0
0
0
0
0
0
0
0
0
0
0
0
0
0
0
0
0
0
0
0
0
0
0
0
0
0
0
0
0
0
0
0
0
0
0
0
0
0
0
0
0
0
0
0
0
0
0
0
0
0
0
0
0
0
0
0
0
0
0
0
0
0
0
0
0
0
0
0
0
0
0
0
0
0
0
0
0
0
0
0
0
0
0
0
0
0
0
0
0
0
0
0
0
0
0
0
0
0
0
0
0
0
0
0
0
0
0
0
0
0
0
0
0
0
0
0
0
0
0
0
0
0
0
0
0
0
0
0
0
0
0
0
0
0
0
0
0
0
0
0
0
0
0
0
0
0
0
0
0
0
0
0
0
0
0
0
0
0
0
0
0
0
0
0
0
0
0
0
0
0
0
0
0
0
0
0
0
0
0
0
0
0
0
0
0
0
0
0
0
0
0
0
0
0
0
0
0
0
0
0
0
0
0
0
0
0
0
0
0
0
0
0
0
0
0
0
0
0
0
0
0
0
0
0
0
0
0
0
0
0
0
0
0
0
0
0
0
0
0
0
0
0
0
0
0
0
0
0
0
0
0
0
0
0
0
0
0
0
0
0
0
0
0
0
0
0
0
0
0
0
0
0
0
0
0
0
0
0
0
0
0
0
0
0
0
0
0
0
0
0
0
0
0
0
0
0
0
0
0
0
0
0
0
0
0
0
0
0
0
0
0
0
0
0
0
0
0
0
0
0
0
0
0
0
0
0
0
0
0
0
0
0
0
0
0
0
0
0
0
0
0
0
0
0
0
0
0
0
0
0
0
0
0
0
0
0
0
0
0
0
0
0
0
0
0
0
0
0
0
0
0
0
0
0
0
0
0
0
0
0
0
0
0
0
0
0
0
0
0
0
0
0
0
0
0
0
0
0
0
0
0
0
0
0
0
0
0
0
0
0
0
0
0
0
0
0
0
0
0
0
0
0
0
0
0
0
0
0
0
0

POINT_DATA	1494
SCALARS model double 1
LOOKUP_TABLE table0
0.0110598
1.50549
-6.94992
-3.29576
-2.0745
0.114997
-2.1352
0.432355
-2.33157
-1.79373
-0.0249736
0.779546
-1.75748
-4.97879
-2.28858
0.0342252
-0.0104402
-20.6171
-8.85488
-2.91262
0.00236199
-0.0575831
3.0989
-4.82203
-2.35414
0.052666
-1.22407
-1.38154
-3.32052
-1.89531
-0.0107713
3.30631
-11.4872
-4.94417
-2.00238
0.108701
-0.18456
-6.94257
-3.87869
-1.71637
0.036156
0.234967
7.86231
-0.0993729
-1.0672
0.061691
-1.16191
1.18584
-0.510433
-1.24205
0.0464356
-0.258813
-5.46647
-2.46544
-1.20003
0.0351029
-1.28637
-4.08082
-0.738778
0.512397
0.0254155
-4.87111
1.1237
2.39436
2.62711
0.04209
-4.34112
-5.22772
2.82842
3.53128
0.0279735
-4.55077
-3.95083
1.32253
2.73442
0.00320808
-0.261901
-8.20311
-1.67014
1.11751
0.0405327
-1.76528
-8.69228
-2.92963
-0.0675537
0.0735596
2.19501
-5.11985
-2.82478
-0.77774
-0.0156972
0.417668
-8.37017
-3.15293
-1.66093
-0.0216644
1.39716
-6.49758
-2.83028
-2.34853
-0.0198259
0.146525
-5.21148
-2.53504
-0.542461
0.0308265
-5.61371
-3.78562
4.01072
3.76895
0.0172228
-25.0272
-0.341348
-13.9714
12.2208
-16.5627
28.5506
110.718
81.1318
26.6551