# vtk DataFile Version 3.0
Gravity inversion using rectangular prisms
ASCII
DATASET UNSTRUCTURED_GRID

POINTS	1473	double
100	100	100
100	100	300
100	100	500
100	100	700
100	100	900
100	300	100
100	300	300
100	300	500
100	300	700
100	300	900
100	500	100
100	500	300
100	500	500
100	500	700
100	500	900
100	700	100
100	700	300
100	700	500
100	700	700
100	700	900
100	900	100
100	900	300
100	900	500
100	900	700
100	900	900
100	1100	100
100	1100	300
100	1100	500
100	1100	700
100	1100	900
100	1300	100
100	1300	300
100	1300	500
100	1300	700
100	1300	900
100	1500	100
100	1500	300
100	1500	500
100	1500	700
100	1500	900
100	1700	100
100	1700	300
100	1700	500
100	1700	700
100	1700	900
100	1900	100
100	1900	300
100	1900	500
100	1900	700
100	1900	900
300	100	100
300	100	300
300	100	500
300	100	700
300	100	900
300	300	100
300	300	300
300	300	500
300	300	700
300	300	900
300	500	100
300	500	300
300	500	500
300	500	700
300	500	900
300	700	100
300	700	300
300	700	500
300	700	700
300	700	900
300	900	100
300	900	300
300	900	500
300	900	700
300	900	900
300	1100	100
300	1100	300
300	1100	500
300	1100	700
300	1100	900
300	1300	100
300	1300	300
300	1300	500
300	1300	700
300	1300	900
300	1500	100
300	1500	300
300	1500	500
300	1500	700
300	1500	900
300	1700	100
300	1700	300
300	1700	500
300	1700	700
300	1700	900
300	1900	100
300	1900	300
300	1900	500
300	1900	700
300	1900	900
500	100	100
500	100	300
500	100	500
500	100	700
500	100	900
500	300	100
500	300	300
500	300	500
500	300	700
500	300	900
500	500	100
450	450	250
450	450	350
450	550	250
450	550	350
550	450	250
550	450	350
550	550	250
550	550	350
500	500	500
500	500	700
500	500	900
450	650	50
450	650	150
450	750	50
450	750	150
550	650	50
550	650	150
550	750	50
550	750	150
450	650	250
450	650	350
450	750	250
450	750	350
525	625	225
525	625	275
525	675	225
525	675	275
575	625	225
575	625	275
575	675	225
575	675	275
525	625	325
525	625	375
525	675	325
525	675	375
575	625	325
575	625	375
575	675	325
575	675	375
525	725	225
525	725	275
525	775	225
525	775	275
575	725	225
575	725	275
575	775	225
575	775	275
525	725	325
525	725	375
525	775	325
525	775	375
575	725	325
575	725	375
575	775	325
575	775	375
450	650	450
450	650	550
450	750	450
450	750	550
550	650	450
550	650	550
550	750	450
550	750	550
500	700	700
500	700	900
500	900	100
450	850	250
450	850	350
450	950	250
450	950	350
550	850	250
550	850	350
550	950	250
550	950	350
500	900	500
500	900	700
500	900	900
500	1100	100
500	1100	300
500	1100	500
500	1100	700
500	1100	900
500	1300	100
500	1300	300
500	1300	500
500	1300	700
500	1300	900
500	1500	100
500	1500	300
500	1500	500
500	1500	700
500	1500	900
500	1700	100
500	1700	300
500	1700	500
500	1700	700
500	1700	900
500	1900	100
500	1900	300
500	1900	500
500	1900	700
500	1900	900
700	100	100
700	100	300
700	100	500
700	100	700
700	100	900
700	300	100
650	250	250
650	250	350
650	350	250
650	350	350
750	250	250
750	250	350
750	350	250
750	350	350
700	300	500
700	300	700
700	300	900
650	450	50
650	450	150
650	550	50
650	550	150
750	450	50
750	450	150
750	550	50
725	525	125
725	525	175
725	575	125
725	575	175
775	525	125
775	525	175
775	575	125
775	575	175
650	450	250
650	450	350
625	525	225
625	525	275
625	575	225
625	575	275
675	525	225
675	525	275
675	575	225
675	575	275
625	525	325
625	525	375
625	575	325
625	575	375
675	525	325
675	525	375
675	575	325
675	575	375
750	450	250
750	450	350
725	525	225
725	525	275
725	575	225
725	575	275
775	525	225
775	525	275
775	575	225
775	575	275
725	525	325
725	525	375
725	575	325
725	575	375
775	525	325
775	525	375
775	575	325
775	575	375
650	450	450
650	450	550
650	550	450
650	550	550
750	450	450
750	450	550
750	550	450
750	550	550
700	500	700
700	500	900
650	650	50
650	650	150
650	750	50
650	750	150
750	650	50
750	650	150
750	750	50
750	750	150
650	650	250
650	650	350
650	750	250
650	750	350
750	650	250
750	650	350
750	750	250
750	750	350
650	650	450
650	650	550
650	750	450
650	750	550
750	650	450
750	650	550
750	750	450
750	750	550
700	700	700
700	700	900
650	850	50
650	850	150
650	950	50
650	950	150
750	850	50
750	850	150
750	950	50
750	950	150
625	825	225
625	825	275
625	875	225
625	875	275
675	825	225
675	825	275
675	875	225
675	875	275
625	825	325
625	825	375
625	875	325
625	875	375
675	825	325
675	825	375
675	875	325
675	875	375
650	950	250
650	950	350
725	825	225
725	825	275
725	875	225
725	875	275
775	825	225
775	825	275
775	875	225
775	875	275
725	825	325
725	825	375
725	875	325
725	875	375
775	825	325
775	825	375
775	875	325
775	875	375
750	950	250
750	950	350
650	850	450
650	850	550
650	950	450
650	950	550
750	850	450
750	850	550
750	950	450
750	950	550
700	900	700
700	900	900
700	1100	100
650	1050	250
650	1050	350
650	1150	250
650	1150	350
750	1050	250
750	1050	350
750	1150	250
750	1150	350
700	1100	500
700	1100	700
700	1100	900
700	1300	100
700	1300	300
700	1300	500
700	1300	700
700	1300	900
700	1500	100
650	1450	250
650	1450	350
650	1550	250
650	1550	350
750	1450	250
750	1450	350
750	1550	250
750	1550	350
700	1500	500
700	1500	700
700	1500	900
700	1700	100
700	1700	300
700	1700	500
700	1700	700
700	1700	900
700	1900	100
700	1900	300
700	1900	500
700	1900	700
700	1900	900
900	100	100
900	100	300
900	100	500
900	100	700
900	100	900
900	300	100
850	250	250
850	250	350
850	350	250
850	350	350
950	250	250
950	250	350
950	350	250
950	350	350
900	300	500
900	300	700
900	300	900
850	450	50
850	450	150
850	550	50
850	550	150
950	450	50
950	450	150
950	550	50
950	550	150
850	450	250
850	450	350
825	525	225
825	525	275
825	575	225
825	575	275
875	525	225
875	525	275
875	575	225
875	575	275
850	550	350
950	450	250
950	450	350
950	550	250
950	550	350
850	450	450
850	450	550
850	550	450
850	550	550
950	450	450
950	450	550
950	550	450
950	550	550
900	500	700
900	500	900
850	650	50
850	650	150
850	750	50
850	750	150
950	650	50
950	650	150
950	750	50
950	750	150
825	625	225
825	625	275
825	675	225
825	675	275
875	625	225
875	625	275
875	675	225
875	675	275
825	625	325
825	625	375
825	675	325
825	675	375
875	625	325
875	625	375
875	675	325
875	675	375
825	725	225
825	725	275
825	775	225
825	775	275
875	725	225
875	725	275
875	775	225
875	775	275
825	725	325
825	725	375
825	775	325
825	775	375
875	725	325
875	725	375
875	775	325
875	775	375
925	625	225
925	625	275
925	675	225
925	675	275
975	625	225
975	625	275
975	675	225
975	675	275
950	650	350
925	725	225
925	725	275
925	775	225
925	775	275
975	725	225
975	725	275
975	775	225
975	775	275
950	750	350
850	650	450
850	650	550
850	750	450
850	750	550
950	650	450
950	650	550
950	750	450
950	750	550
900	700	700
900	700	900
850	850	50
850	850	150
850	950	50
850	950	150
950	850	50
950	850	150
950	950	50
950	950	150
825	825	225
825	825	275
825	875	225
825	875	275
875	825	225
875	825	275
875	875	225
875	875	275
850	850	350
850	950	250
850	950	350
950	850	250
950	850	350
950	950	250
950	950	350
850	850	450
850	850	550
850	950	450
850	950	550
950	850	450
950	850	550
950	950	450
950	950	550
900	900	700
900	900	900
900	1100	100
850	1050	250
850	1050	350
850	1150	250
850	1150	350
950	1050	250
950	1050	350
950	1150	250
950	1150	350
850	1050	450
850	1050	550
850	1150	450
850	1150	550
950	1050	450
950	1050	550
950	1150	450
950	1150	550
900	1100	700
900	1100	900
850	1250	50
850	1250	150
850	1350	50
850	1350	150
950	1250	50
950	1250	150
950	1350	50
950	1350	150
850	1250	250
850	1250	350
850	1350	250
850	1350	350
925	1225	225
925	1225	275
925	1275	225
925	1275	275
975	1225	225
975	1225	275
975	1275	225
975	1275	275
950	1250	350
925	1325	225
925	1325	275
925	1375	225
925	1375	275
975	1325	225
975	1325	275
975	1375	225
975	1375	275
950	1350	350
850	1250	450
850	1250	550
850	1350	450
850	1350	550
950	1250	450
950	1250	550
950	1350	450
950	1350	550
900	1300	700
900	1300	900
850	1450	50
850	1450	150
850	1550	50
850	1550	150
950	1450	50
950	1450	150
950	1550	50
950	1550	150
850	1450	250
850	1450	350
850	1550	250
850	1550	350
925	1425	225
925	1425	275
925	1475	225
925	1475	275
975	1425	225
975	1425	275
975	1475	225
975	1475	275
950	1450	350
925	1525	225
925	1525	275
925	1575	225
925	1575	275
975	1525	225
975	1525	275
975	1575	225
975	1575	275
950	1550	350
850	1450	450
850	1450	550
850	1550	450
850	1550	550
950	1450	450
950	1450	550
950	1550	450
950	1550	550
900	1500	700
900	1500	900
900	1700	100
850	1650	250
850	1650	350
850	1750	250
850	1750	350
950	1650	250
950	1650	350
950	1750	250
950	1750	350
900	1700	500
900	1700	700
900	1700	900
900	1900	100
900	1900	300
900	1900	500
900	1900	700
900	1900	900
1100	100	100
1100	100	300
1100	100	500
1100	100	700
1100	100	900
1100	300	100
1100	300	300
1100	300	500
1100	300	700
1100	300	900
1050	450	50
1050	450	150
1050	550	50
1050	550	150
1150	450	50
1150	450	150
1150	550	50
1150	550	150
1050	450	250
1050	450	350
1050	550	250
1050	550	350
1150	450	250
1150	450	350
1150	550	250
1150	550	350
1050	450	450
1050	450	550
1050	550	450
1050	550	550
1150	450	450
1150	450	550
1150	550	450
1150	550	550
1100	500	700
1100	500	900
1050	650	50
1050	650	150
1050	750	50
1050	750	150
1150	650	50
1150	650	150
1150	750	50
1150	750	150
1025	625	225
1025	625	275
1025	675	225
1025	675	275
1075	625	225
1075	625	275
1075	675	225
1075	675	275
1050	650	350
1025	725	225
1025	725	275
1025	775	225
1025	775	275
1075	725	225
1075	725	275
1075	775	225
1075	775	275
1050	750	350
1125	625	225
1125	625	275
1125	675	225
1125	675	275
1175	625	225
1175	625	275
1175	675	225
1175	675	275
1150	650	350
1125	725	225
1125	725	275
1125	775	225
1125	775	275
1175	725	225
1175	725	275
1175	775	225
1175	775	275
1150	750	350
1050	650	450
1050	650	550
1050	750	450
1050	750	550
1150	650	450
1150	650	550
1150	750	450
1150	750	550
1100	700	700
1100	700	900
1100	900	100
1050	850	250
1050	850	350
1050	950	250
1050	950	350
1150	850	250
1150	850	350
1150	950	250
1150	950	350
1050	850	450
1050	850	550
1050	950	450
1050	950	550
1150	850	450
1150	850	550
1150	950	450
1150	950	550
1100	900	700
1100	900	900
1100	1100	100
1050	1050	250
1050	1050	350
1050	1150	250
1050	1150	350
1150	1050	250
1150	1050	350
1150	1150	250
1150	1150	350
1050	1050	450
[...]
CELL_DATA	1473
SCALARS model double 1
LOOKUP_TABLE table0
0.0342495
1.26267
-5.73749
-2.59439
-1.18942
0.140985
-1.64297
2.70067
-0.818529
-0.556971
0.0233994
1.13433
1.51328
-1.87185
-0.470178
0.0948448
-0.291494
-10.9377
-4.43692
-0.808235
0.0416551
0.588391
1.56884
-3.15704
-0.915951
0.0736355
0.0179239
-2.37799
-3.26719
-1.20778
0.00207835
2.95525
-11.0347
-4.77211
-1.646
0.103211
0.283501
-7.77941
-3.94153
-1.67908
0.0108817
1.00566
1.89957
-1.7972
-1.63675
0.0475132
-0.923809
1.73131
-1.34995
-1.85667
0.0580796
0.545211
-2.99095
-2.00838
-0.529701
0.0447108
1.3704
-9.49423
-2.4819
0.321123
0.0397206
-0.157923
-13.999
-1.6285
1.74658
0.0495871
0.223415
-19.9226
-1.32689
2.58887
0.0500442
-0.780188
-17.5196
-2.29804
2.1004
0.0785713
-0.932122
-12.3978
-3.39887
0.981116
0.0438266
-0.703199
-8.46893
-3.32176
0.116244
0.0864706
1.13995
-5.38406
-3.12872
-0.685608
-0.0311348
1.14701
-7.64069
-3.87307
-1.96015
-0.0232099
0.791991
-2.62862
-3.54176
-2.95725
-0.00074687
1.17966
-4.09215
-1.45268
0.503484
0.0285961
-1.73822
-13.0375
0.199231
2.71222
-0.0319125
-13.5122
-1.89339
-20.0681
10.984
-18.5262
23.6655
51.5411
60.6623
-1.79911
10.5212
7.27561
0.117374
-0.616993
-0.367438
0.19394
0.254273
-3.36026
-0.34319
-3.37527
-49.1857
22.2254
-52.0836
23.1048
92.8459
92.9228
92.8784
92.9327
92.7859
92.8956
92.8578
92.9219
96.7625
96.7873
96.7657
96.7891
96.7489
96.7836
96.7588
96.7882
103.743
103.804
103.673
103.779
103.742
103.802
103.685
103.785
99.9565
99.9818
99.9504
99.9827
99.9543
99.9836
99.9529
99.9875
20.2356
20.283
20.2495
20.2973
20.1781
20.2856
20.2194
20.3146
19.1723
10.5402
0.022152
-38.9878
11.6677
-15.2821
1.45288
63.9492
64.1532
-34.4632
22.4243
-2.43713
12.2384
9.32961
0.0671194
-7.57177
-18.7864
2.63515
6.38332
0.0481645
-4.47704
-11.0116
0.768069
4.52219
0.0282595
-5.3709
-11.5304
-0.961739
2.37303
0.0168342
-0.121342
-10.6942
-4.73319
-1.21526
-0.0296145
1.32762
-0.712712
-6.54452
-4.15454
0.012312
0.0818362
-7.47492
-0.40757
1.42885
0.0630461
-0.930953
-7.28081
-31.1163
7.36687
0.962004
-8.45725
-34.6007
11.146
-12.9254
5.0501
4.71706
-0.1358
-12.8695
-1.64222
21.0656
-1.39974
-15.3322
-6.8864
127.69
127.996
128.216
128.107
127.488
128.011
128.321
128.215
25.692
68.9071
123.989
124.149
124.023
124.162
124.129
124.213
124.143
124.219
138.018
138.058
138.022
138.06
138.049
138.075
138.05
138.076
48.9687
92.0349
177.061
177.111
177.088
177.118
177.106
177.151
177.16
177.164
172.851
172.863
172.851
172.864
172.879
172.883
172.88
172.883
71.2104
71.2683
71.1742
71.2696
71.3661
71.3302
71.3282
71.3375
29.5844
12.0282
3.69752
4.75859
5.80545
5.77274
9.65166
8.20201
12.3115
9.23117
518.656
518.992
518.818
519.057
519.276
519.192
519.455
519.262
169.33
169.42
169.4
169.461
169.472
169.488
169.547
169.533
49.9145
17.6928
4.33975
-2.00831
0.0888255
-2.63185
8.13232
1.62672
0.0967937
-1.08071
167.545
167.641
167.528
167.657
167.681
167.71
167.664
167.721
144.473
144.5
144.494
144.514
144.509
144.52
144.526
144.533
-9.75964
57.9669
230.889
230.875
230.859
230.878
230.949
230.91
230.899
230.905
178.047
178.046
178.06
178.057
178.068
178.06
178.077
178.069
48.3843
83.0518
82.6762
82.6676
82.8513
82.7251
82.8307
82.7498
83.0097
82.8204
36.5264
16.8393
0.120262
-73.0357
-10.7651
-0.243691
-25.9073
-32.6584
-3.12667
-12.1986
-25.6183
-2.13788
18.4406
14.16
0.0443075
-28.1994
12.7525
18.0664
13.2517
0.0384745
-11.1835
-10.4806
-8.48301
-13.2025
-43.6238
12.7736
-49.3161
-1.13623
0.205647
13.0544
9.82263
0.0482545
-6.70042
-15.4446
-1.31167
2.02412
-0.0265686
2.20681
-24.8906
-12.3281
-4.86682
0.0180038
-0.407059
-3.75794
1.10352
1.27877
0.0641416
5.09227
-9.21883
-40.1675
7.40144
1.3396
-10.4327
-24.5926
4.44987
-8.12507
3.96997
2.89424
-0.0257403
-4.01276
1.72884
0.0805996
-0.0449512
-6.0432
0.694538
-2.53172
28.7799
82.3893
190.169
190.206
190.232
190.218
190.194
190.223
190.244
190.227
157.63
-14.6749
48.7683
113.043
98.0771
68.7602
68.6257
68.7051
68.6354
68.8437
68.654
68.7734
68.6657
22.5555
7.75046
12.8364
6.75743
12.8793
7.12988
3.65233
1.52491
2.83224
0.574895
285.25
285.205
285.284
285.222
285.228
285.194
285.238
285.201
208.032
208.025
208.04
208.029
208.03
208.026
208.032
208.027
298.557
298.491
298.553
298.491
298.499
298.463
298.493
298.462
207.22
207.208
207.225
207.214
207.208
207.204
207.212
207.209
178.802
178.803
178.773
178.794
178.727
178.775
178.647
178.751
129.089
176.654
176.684
176.663
176.687
176.519
176.638
176.566
176.653
124.858
150.394
150.355
150.45
150.398
150.426
150.378
150.468
150.415
38.6484
12.5626
6.50001
1.40475
-0.728513
-1.74209
1.58466
-4.25722
0.850647
-8.07764
217.177
217.135
217.126
217.133
217.124
217.112
217.075
217.111
152.143
51.9996
82.3133
99.8521
82.5738
-22.0713
36.1109
80.0158
79.9029
80.2016
79.9785
80.0346
79.9175
80.1968
79.9832
32.903
15.0496
1.11051
-79.368
-81.8622
-79.2173
-82.0991
-80.0879
-82.0719
-81.2407
-82.3151
34.1225
33.8128
34.0305
33.7889
34.0876
33.8138
34.0182
33.7981
33.0548
19.0723
0.85569
3.92917
4.70991
-1.08571
4.91522
2.67928
15.6925
8.11961
18.643
47.0346
112.234
96.6675
125.402
125.377
125.377
125.348
125.289
125.326
125.38
125.354
106.143
261.648
261.602
261.695
261.62
261.72
261.642
261.783
261.67
169.191
119.495
119.386
119.447
119.364
119.553
119.41
119.521
119.39
51.5086
24.0253
4.76226
2.63401
0.355334
9.10731
18.4106
8.27756
4.80521
-1.12219
104.069
101.579
-14.47
56.9836
259.422
259.336
259.384
259.318
259.488
259.374
259.394
259.325
174.581
107.83
107.824
107.614
107.744
107.754
107.788
107.459
107.673
115.718
105.336
105.228
105.285
105.183
105.371
105.249
105.275
105.202
46.2026
20.8843
0.0333387
-51.363
4.70371
-12.2955
-11.0747
-27.6694
23.5913
-28.3141
-5.52694
4.67543
11.9911
7.96888
-0.0509763
1.04263
-34.0959
-13.006
-3.78837
0.000736999
-0.236175
12.7308
2.10426
-0.180288
0.00421323
5.90819
-4.7357
-4.82594
-2.72996
-0.0978776
1.37861
-0.0974356
0.988836
0.239065
1.25896
0.339565
4.14738
23.7297
-0.308459
-7.52603
-9.38712
13.4499
-48.6341
-131.17
-96.6161
-35.9975
-36.1789
-36.0522
-36.1654
-36.1616
-36.2536
-36.1714
-36.2349
-15.0113
-5.42055
-0.39666
-2.1953
-0.0837593
-4.50833
-4.84889
0.0627852
-5.43885
0.515295
-6.25207
-6.22922
-6.3904
-6.26684
-6.18163
-6.2142
-6.32078
-6.24999
-4.55811
-10.0699
-9.92834
-9.95546
-9.89055
-9.98144
-9.90052
-9.81848
-9.84017
-9.66951
-208.007
-208.057
-208.096
-208.082
-208.063
-208.083
-208.114
-208.096
-117.169
-206.436
-206.425
-206.274
-206.356
-206.442
-206.434
-206.301
-206.368
-121.77
-78.7036
-78.7651
-78.6472
-78.7262
-78.7857
-78.8277
-78.7067
-78.7859
-20.7545
-5.02701
0.62527
-30.8031
-30.3569
-10.2302
-32.525
-129.048
-116.593
-2.74335
-78.7699
-46.8355
-46.9843
-46.7418
-46.9387
-46.9071
-47.0509
-46.9043
-47.0284
-7.30336
2.21826
-0.136882
-1.30774
-18.5546
19.019
36.6754
-5.33789
-19.7397
-9.6243
41.972
36.8612
36.7085
36.7795
36.7001
36.609
36.6039
36.5576
36.6085
28.9494
16.2348
8.39983
10.3084
25.4874
17.3608
7.39125
11.1969
25.2686
16.6066
139.967
131.043
286.022
285.943
286.097
285.982
286.01
285.937
286.098
285.985
197.59
117.063
136.819
255.833
255.762
255.927
255.815
255.824
255.758
255.91
255.809
200.262
192.022
191.941
192.088
191.95
191.915
191.887
192.055
191.923
70.2745
70.2151
70.2719
70.2118
70.2434
70.1971
70.2519
70.1985
28.9599
26.3175
17.7346
7.79692
9.69054
25.9077
17.6629
8.71574
11.7382
296.305
296.192
296.205
296.137
296.313
296.2
296.221
296.147
205.041
171.418
171.447
171.155
171.335
171.463
171.465
171.24
171.361
153.651
272.412
272.297
272.334
272.251
272.404
272.296
272.342
272.258
204.633
171.64
171.623
171.435
171.523
171.674
171.643
171.479
171.544
156.844
200.632
200.505
200.508
200.457
200.63
200.492
200.501
200.443
69.9109
69.8549
69.8827
69.8363
69.8973
69.8449
69.871
69.8279
27.8968
-0.119876
-34.2138
-32.7502
-28.1238
-31.8447
-34.3607
-32.8538
-31.4703
-32.4015
36.7358
36.676
36.8141
36.6376
36.6855
36.6523
36.6857
36.5978
24.3216
12.4374
-0.0304523
-0.414388
-37.6575
-10.3037
-2.0187
-0.0266996
1.46747
8.42075
0.252654
-1.75844
-0.122272
8.22023
7.23147
44.7587
-8.39796
14.6923
9.25575
27.6334
-11.7379
0.0818016
-11.7879
-7.30919
0.217547
37.0603
4.30277
-122.606
-122.93
-123.031
-122.984
-122.35
-122.946
-122.962
-123.044
2.24213
10.9902
2.05427
-171.721
-172.319
-172.431
-172.488
-172.044
-172.371
-172.841
-172.61
-40.7176
-84.4178
-180.815
-155.121
-62.2776
-95.46
-197.45
-169.546
-112.291
-112.264
-112.277
-112.249
-112.453
-112.348
-112.443
-112.339
-43.7279
-16.0765
-18.7249
-26.6996
-24.2587
-26.4148
-32.7153
-29.0989
-31.8701
-28.703
-260.922
-188.61
-258.401
-193.428
-267.181
-205.431
-255.934
-208.457
-211.632
-211.608
-211.559
-211.569
-211.794
-211.695
-211.736
-211.658
-65.6875
-65.686
-65.6605
-65.6669
-65.7413
-65.7184
-65.7155
-65.7005
-19.7359
-0.0713397
-101.088
-0.303415
33.9668
-6.43284
-97.9115
-1.08716
22.1722
-180.55
-175.757
-80.1157
-117.176
-185.661
-186.952
-92.9287
-125.115
-70.0404
-55.6264
-46.5612
-40.6455
-74.3345
-61.044
-51.0306
-45.9503
-40.8689
-10.4244
0.252204
-52.0143
-25.7208
-0.00987918
52.8061
-23.1023
-24.7498
38.0205
56.3672
12.629
12.7097
12.6628
12.7366
12.5984
12.6559
12.6821
12.7
11.5466
8.15716
6.03016
-11.5783
6.56956
193.845
193.817
194.195
193.963
193.626
193.76
193.994
193.897
0.580515
38.2541
8.53376
147.617
121.457
146.34
229.519
198.704
122.562
142.761
198.426
186.06
140.398
140.368
140.548
140.416
140.381
140.331
140.483
140.371
58.1058
23.7302
28.8498
18.1176
7.7728
15.6386
22.9898
17.3525
8.56865
17.2204
241.864
194.344
151.315
141.006
202.888
177.649
123.437
125.529
154.798
154.655
154.674
154.608
154.725
154.609
154.621
154.569
60.498
24.5234
-0.285687
39.5843
44.5118
-51.7361
-13.408
26.028
39.0473
-35.528
-6.97491
23.2993
23.2909
23.2624
23.2358
23.2634
23.2614
23.2744
23.2271
20.4932
11.1273
-0.0314115
-0.441512
-33.1702
-8.60421
-1.59299
-0.0211469
1.61847
8.8716
0.505016
-1.59434
-0.0903499
3.2096
12.2506
37.7268
-3.39733
-0.736733
14.8138
34.5956
5.36952
12.677
-8.37566
-6.7781
-0.741283
1.31029
-9.84954
-2.57914
-0.792079
-1.48952
-3.63795
1.33773
-33.0063
-76.4125
-182.793
-147.329
25.3236
-40.612
-103.595
-97.2191
-76.3092
-76.1598
-76.2865
-76.1554
-76.3344
-76.168
-76.2748
-76.1655
-36.7297
-15.5848
-26.8604
-18.3453
-23.9926
-17.8948
-8.7197
-14.7082
-8.33711
-15.3944
-247.32
-184.193
-223.055
-184.212
-163.476
-138.067
-139.99
-136.939
-160.406
-160.277
-160.36
-160.243
-160.384
-160.287
-160.349
-160.256
-56.7207
-20.0175
-3.91163
-85.5296
-0.603534
17.2844
-2.57208
3.12091
-0.438321
17.8577
-153.258
-159.489
-67.9897
-105.149
-82.948
-103.824
-16.2965
-61.3593
-84.9546
-84.8771
-84.8629
-84.8278
-84.9496
-84.896
-84.8533
-84.8468
-37.6845
-12.9232
-0.0660937
-6.94341
-22.7782
32.3938
42.8229
14.0204
-13.2859
7.91326
24.3153
5.29514
-0.470589
1.49651
2.08067
14.5351
4.92629
85.8587
1.01854
-2.92097
0.993446
33.4945
90.0722
116.85
145.817
155.855
31.9654
70.4165
76.7216
100.29
50.5601
48.1997
60.7227
56.0684
34.5141
37.286
42.7615
44.0884
27.7735
13.047
8.04509
99.5514
3.51357
22.7958
2.37093
25.7579
0.96233
2.7579
146.009
149.881
84.5636
102.265
75.2358
97.6458
28.0432
61.61
54.6981
54.6298
54.6185
54.5972
54.5842
54.5712
54.5236
54.5452
28.9668
14.066
-0.0020642
6.18547
24.2428
-27.7277
-9.90963
-8.30486
7.88053
-5.32831
-14.3799
-5.63282
6.66074
5.44491
-0.00241828
1.69353
-21.2926
-8.26779
-2.69682
-0.0108735
0.58226
2.4619
2.39489
0.247032
-0.0134626
2.97313
11.6432
-0.0467104
-2.22361
0.134159
41.4257
-2.43437
-11.8225
-21.6325
9.3957
8.18292
26.0668
6.31911
-2.26394
-10.361
-6.86319
0.267611
19.1884
18.5498
18.3462
18.4987
17.1297
18.1678
17.1405
18.3927
-27.9882
-27.9029
-27.9516
-27.8743
-28.0013
-27.8739
-27.9124
-27.8397
-19.6913
-9.82548
0.114613
-7.23576
-20.5105
41.1745
-2.68586
18.745
12.6232
12.7978
11.3717
-12.1338
-14.3321
-7.18567
-0.0305421
2.69524
-3.28865
-3.16452
-0.959495
0.0237161
-21.5571
11.4686
16.0151
21.8422
-0.812973
-6.14653
-8.587
-6.5808
-3.82928
4.58875
3.96354
-0.0390368
17.7601
22.54
-12.3342
10.5703
-7.89808
-7.10283
-1.35466
-6.21319
-6.58155
4.10719
4.11666
-0.0227064
-0.99301
-14.2221
-3.81047
-0.311497
-0.0133936
1.97277
-11.1074
-8.67848
-4.35993
-0.00318184
-0.44494
7.12646
4.45386
1.87001
-0.000394988
0.774009
-0.0690687
4.86197
1.7664
-0.00235994
1.26255
18.933
5.53543
0.661456
-0.00890113
2.01657
17.7632
2.47655
-0.935072
-0.043624
2.54828
13.6718
0.584514
-1.2067
-0.00731032
1.12975
-1.15478
-0.55166
-0.150978
0.00898058
0.328479
-8.03614
-0.508974
0.901663
-0.0366659
0.717874
-3.44702
-0.71855
0.415088
-0.0265336
0.876369
-6.03722
-4.8851
-2.27704
-0.098963
3.85975
-8.29811
-7.74445
-4.52812
SCALARS m0 double 1
LOOKUP_TABLE table1
0
0
0
0
0
0
0
0
0
0
0
0
0
0
0
0
0
0
0
0
0
0
0
0
0
0
0
0
0
0
0
0
0
0
0
0
0
0
0
0
0
0
0
0
0
0
0
0
0
0
0
0
0
0
0
0
0
0
0
0
0
0
0
0
0
0
0
0
0
0
0
0
0
0
0
0
0
0
0
0
0
0
0
0
0
0
0
0
0
0
0
0
0
0
0
0
0
0
0
0
0
0
0
0
0
0
0
0
0
0
0
0
0
0
0
0
0
0
0
0
0
0
0
0
0
0
0
0
0
0
0
0
0
0
0
0
0
0
0
0
0
0
0
0
0
0
0
0
0
0
0
0
0
0
0
0
0
0
0
0
0
0
0
0
0
0
0
0
0
0
0
0
0
0
0
0
0
0
0
0
0
0
0
0
0
0
0
0
0
0
0
0
0
0
0
0
0
0
0
0
0
0
0
0
0
0
0
0
0
0
0
0
0
0
0
0
0
0
0
0
0
0
0
0
0
0
0
0
0
0
0
0
0
0
0
0
0
0
0
0
0
0
0
0
0
0
0
0
0
0
0
0
0
0
0
0
0
0
0
0
0
0
0
0
0
0
0
0
0
0
0
0
0
0
0
0
0
0
0
0
0
0
0
0
0
0
0
0
0
0
0
0
0
0
0
0
0
0
0
0
0
0
0
0
0
0
0
0
0
0
0
0
0
0
0
0
0
0
0
0
0
0
0
0
0
0
0
0
0
0
0
0
0
0
0
0
0
0
0
0
0
0
0
0
0
0
0
0
0
0
0
0
0
0
0
0
0
0
0
0
0
0
0
0
0
0
0
0
0
0
0
0
0
0
0
0
0
0
0
0
0
0
0
0
0
0
0
0
0
0
0
0
0
0
0
0
0
0
0
0
0
0
0
0
0
0
0
0
0
0
0
0
0
0
0
0
0
0
0
0
0
0
0
0
0
0
0
0
0
0
0
0
0
0
0
0
0
0
0
0
0
0
0
0
0
0
0
0
0
0
0
0
0
0
0
0
0
0
0
0
0
0
0
0
0
0
0
0
0
0
0
0
0
0
0
0
0
0
0
0
0
0
0
0
0
0
0
0
0
0
0
0
0
0
0
0
0
0
0
0
0
0
0
0
0
0
0
0
0
0
0
0
0
0
0
0
0
0
0
0
0
0
0
0
0
0
0
0
0
0
0
0
0
0
0
0
0
0
0
0
0
0
0
0
0
0
0
0
0
0
0
0
0
0
0
0
0
0
0
0
0
0
0
0
0
0
0
0
0
0
0
0
0
0
0
0
0
0
0
0
0
0
0
0
0
0
0
0
0
0
0
0
0
0
0
0
0
0
0
0
0
0
0
0
0
0
0
0
0
0
0
0
0
0
0
0
0
0
0
0
0
0
0
0
0
0
0
0
0
0
0
0
0
0
0
0
0
0
0
0
0
0
0
0
0
0
0
0
0
0
0
0
0
0
0
0
0
0
0
0
0
0
0
0
0
0
0
0
0
0
0
0
0
0
0
0
0
0
0
0
0
0
0
0
0
0
0
0
0
0
0
0
0
0
0
0
0
0
0
0
0
0
0
0
0
0
0
0
0
0
0
0
0
0
0
0
0
0
0
0
0
0
0
0
0
0
0
0
0
0
0
0
0
0
0
0
0
0
0
0
0
0
0
0
0
0
0
0
0
0
0
0
0
0
0
0
0
0
0
0
0
0
0
0
0
0
0
0
0
0
0
0
0
0
0
0
0
0
0
0
0
0
0
0
0
0
0
0
0
0
0
0
0
0
0
0
0
0
0
0
0
0
0
0
0
0
0
0
0
0
0
0
0
0
0
0
0
0
0
0
0
0
0
0
0
0
0
0
0
0
0
0
0
0
0
0
0
0
0
0
0
0
0
0
0
0
0
0
0
0
0
0
0
0
0
0
0
0
0
0
0
0
0
0
0
0
0
0
0
0
0
0
0
0
0
0
0
0
0
0
0
0
0
0
0
0
0
0
0
0
0
0
0
0
0
0
0
0
0
0
0
0
0
0
0
0
0
0
0
0
0
0
0
0
0
0
0
0
0
0
0
0
0
0
0
0
0
0
0
0
0
0
0
0
0
0
0
0
0
0
0
0
0
0
0
0
0
0
0
0
0
0
0
0
0
0
0
0
0
0
0
0
0
0
0
0
0
0
0
0
0
0
0
0
0
0
0
0
0
0
0
0
0
0
0
0
0
0
0
0
0
0
0
0
0
0
0
0
0
0
0
0
0
0
0
0
0
0
0
0
0
0
0
0
0
0
0
0
0
0
0
0
0
0
0
0
0
0
0
0
0
0
0
0
0
0
0
0
0
0
0
0
0
0
0
0
0
0
0
0
0
0
0
0
0
0
0
0
0
0
0
0
0
0
0
0
0
0
0
0
0
0
0
0
0
0
0
0
0
0
0
0
0
0
0
0
0
0
0
0
0
0
0
0
0
0
0
0
0
0
0
0
0
0
0
0
0
0
0
0
0
0
0
0
0
0
0
0
0
0
0
0
0
0
0
0
0
0
0
0
0
0
0
0
0
0
0
0
0
0
0
0
0
0
0
0
0
0
0
0
0
0
0
0
0
0
0
0
0
0
0
0
0
0
0
0
0
0
0
0
0
0
0
0
0
0
0
0
0
0
0
0
0
0
0
0
0
0
0
0
0
0
0
0
0
0
0
0
0
0
0
0
0
0
0
0
0
0
0
0
0
0
0
0
0
0
0
0
0
0
0
0
0
0
0
0
0
0
0
0
0
0
0
0
0
0
0
0
0
0
0
0
0
0
0
0
0
0
0
0
0
0
0
0
0
0
0
0
0
0
0
0
0
0
0
0
0
0
0
0
0
0
0
0
0
0
0
0
0
0
0
0
0
0
0
0
0
0
0
0
0
0
0
0
0
0
0
0
0
0
0
0
0
0
0
0
0
0
0
0
0
0
0
0
0
0
0
0
0
0
0
0
0
0
0
0
0
0
0
0
0
0
0
0
0
0
0
0
0
0
0
0
0
0
0
0
0
0
0
0
0
0
0
0
0
0
0
0
0
0
0
0
0
0
0
0
0
0
0
0
0
0
0
0
0
0
0
0
0
0
0
0
0
0
0
0
0
0
0
0
0
0
0
0
0
0
0
0
0
0
0
0
0
0
0
0
0
0
0
0
0
0
0
0
0
0
0
0
0
0
0
0
0
0
0
0
0
0
0
0
0
0
0
0
0
0
0
0
0
0
0
0
0
0
0
0
0
0
0
0
0
0
0
0
0
0
0
0
0
0
0
0
0
0
0
0
0
0
0
0
0
0
0
SCALARS m0s double 1
LOOKUP_TABLE table2
0
0
0
0
0
0
0
0
0
0
0
0
0
0
0
0
0
0
0
0
0
0
0
0
0
0
0
0
0
0
0
0
0
0
0
0
0
0
0
0
0
0
0
0
0
0
0
0
0
0
0
0
0
0
0
0
0
0
0
0
0
0
0
0
0
0
0
0
0
0
0
0
0
0
0
0
0
0
0
0
0
0
0
0
0
0
0
0
0
0
0
0
0
0
0
0
0
0
0
0
0
0
0
0
0
0
0
0
0
0
0
0
0
0
0
0
0
0
0
0
0
0
0
0
0
0
0
0
0
0
0
0
0
0
0
0
0
0
0
0
0
0
0
0
0
0
0
0
0
0
0
0
0
0
0
0
0
0
0
0
0
0
0
0
0
0
0
0
0
0
0
0
0
0
0
0
0
0
0
0
0
0
0
0
0
0
0
0
0
0
0
0
0
0
0
0
0
0
0
0
0
0
0
0
0
0
0
0
0
0
0
0
0
0
0
0
0
0
0
0
0
0
0
0
0
0
0
0
0
0
0
0
0
0
0
0
0
0
0
0
0
0
0
0
0
0
0
0
0
0
0
0
0
0
0
0
0
0
0
0
0
0
0
0
0
0
0
0
0
0
0
0
0
0
0
0
0
0
0
0
0
0
0
0
0
0
0
0
0
0
0
0
0
0
0
0
0
0
0
0
0
0
0
0
0
0
0
0
0
0
0
0
0
0
0
0
0
0
0
0
0
0
0
0
0
0
0
0
0
0
0
0
0
0
0
0
0
0
0
0
0
0
0
0
0
0
0
0
0
0
0
0
0
0
0
0
0
0
0
0
0
0
0
0
0
0
0
0
0
0
0
0
0
0
0
0
0
0
0
0
0
0
0
0
0
0
0
0
0
0
0
0
0
0
0
0
0
0
0
0
0
0
0
0
0
0
0
0
0
0
0
0
0
0
0
0
0
0
0
0
0
0
0
0
0
0
0
0
0
0
0
0
0
0
0
0
0
0
0
0
0
0
0
0
0
0
0
0
0
0
0
0
0
0
0
0
0
0
0
0
0
0
0
0
0
0
0
0
0
0
0
0
0
0
0
0
0
0
0
0
0
0
0
0
0
0
0
0
0
0
0
0
0
0
0
0
0
0
0
0
0
0
0
0
0
0
0
0
0
0
0
0
0
0
0
0
0
0
0
0
0
0
0
0
0
0
0
0
0
0
0
0
0
0
0
0
0
0
0
0
0
0
0
0
0
0
0
0
0
0
0
0
0
0
0
0
0
0
0
0
0
0
0
0
0
0
0
0
0
0
0
0
0
0
0
0
0
0
0
0
0
0
0
0
0
0
0
0
0
0
0
0
0
0
0
0
0
0
0
0
0
0
0
0
0
0
0
0
0
0
0
0
0
0
0
0
0
0
0
0
0
0
0
0
0
0
0
0
0
0
0
0
0
0
0
0
0
0
0
0
0
0
0
0
0
0
0
0
0
0
0
0
0
0
0
0
0
0
0
0
0
0
0
0
0
0
0
0
0
0
0
0
0
0
0
0
0
0
0
0
0
0
0
0
0
0
0
0
0
0
0
0
0
0
0
0
0
0
0
0
0
0
0
0
0
0
0
0
0
0
0
0
0
0
0
0
0
0
0
0
0
0
0
0
0
0
0
0
0
0
0
0
0
0
0
0
0
0
0
0
0
0
0
0
0
0
0
0
0
0
0
0
0
0
0
0
0
0
0
0
0
0
0
0
0
0
0
0
0
0
0
0
0
0
0
0
0
0
0
0
0
0
0
0
0
0
0
0
0
0
0
0
0
0
0
0
0
0
0
0
0
0
0
0
0
0
0
0
0
0
0
0
0
0
0
0
0
0
0
0
0
0
0
0
0
0
0
0
0
0
0
0
0
0
0
0
0
0
0
0
0
0
0
0
0
0
0
0
0
0
0
0
0
0
0
0
0
0
0
0
0
0
0
0
0
0
0
0
0
0
0
0
0
0
0
0
0
0
0
0
0
0
0
0
0
0
0
0
0
0
0
0
0
0
0
0
0
0
0
0
0
0
0
0
0
0
0
0
0
0
0
0
0
0
0
0
0
0
0
0
0
0
0
0
0
0
0
0
0
0
0
0
0
0
0
0
0
0
0
0
0
0
0
0
0
0
0
0
0
0
0
0
0
0
0
0
0
0
0
0
0
0
0
0
0
0
0
0
0
0
0
0
0
0
0
0
0
0
0
0
0
0
0
0
0
0
0
0
0
0
0
0
0
0
0
0
0
0
0
0
0
0
0
0
0
0
0
0
0
0
0
0
0
0
0
0
0
0
0
0
0
0
0
0
0
0
0
0
0
0
0
0
0
0
0
0
0
0
0
0
0
0
0
0
0
0
0
0
0
0
0
0
0
0
0
0
0
0
0
0
0
0
0
0
0
0
0
0
0
0
0
0
0
0
0
0
0
0
0
0
0
0
0
0
0
0
0
0
0
0
0
0
0
0
0
0
0
0
0
0
0
0
0
0
0
0
0
0
0
0
0
0
0
0
0
0
0
0
0
0
0
0
0
0
0
0
0
0
0
0
0
0
0
0
0
0
0
0
0
0
0
0
0
0
0
0
0
0
0
0
0
0
0
0
0
0
0
0
0
0
0
0
0
0
0
0
0
0
0
0
0
0
0
0
0
0
0
0
0
0
0
0
0
0
0
0
0
0
0
0
0
0
0
0
0
0
0
0
0
0
0
0
0
0
0
0
0
0
0
0
0
0
0
0
0
0
0
0
0
0
0
0
0
0
0
0
0
0
0
0
0
0
0
0
0
0
0
0
0
0
0
0
0
0
0
0
0
0
0
0
0
0
0
0
0
0
0
0
0
0
0
0
0
0
0
0
0
0
0
0
0
0
0
0
0
0
0
0
0
0
0
0
0
0
0
0
0
0
0
0
0
0
0
0
0
0
0
0
0
0
0
0
0
0
0
0
0
0
0
0
0
0
0
0
0
0
0
0
0
0
0
0
0
0
0
0
0
0
0
0
0
0
0
0
0
0
0
0
0
0
0
0
0
0
0
0
0
0
0
0
0
0
0
0
0
0
0
0
0
0
0
0
0
0
0
0
0
0
0
0
0
0
0
0
0
0
0
0
0
0
0
0
0
0
0
0
0
0
0
0
0
0
0
0
0
0
0
0
0
0
0
0
0
0
0
0
0
0
0
0
0
0
0
0
0
0
0
0
0
0
0
0
0
0
0
0
0
0
0
0
0
0
0
0
0
0
0
0
0
0
0
0
0
0
0
0
0
0
0
0
0
0
0
0
0
0
0
0
0
0
0
0
0
0
0
0
0
0
0
0
0
0
0

POINT_DATA	1473
SCALARS model double 1
LOOKUP_TABLE table0
0.0342495
1.26267
-5.73749
-2.59439
-1.18942
0.140985
-1.64297
2.70067
-0.818529
-0.556971
0.0233994
1.13433
1.51328
-1.87185
-0.470178
0.0948448
-0.291494
-10.9377
-4.43692
-0.808235
0.0416551
0.588391
1.56884
-3.15704
-0.915951
0.0736355
0.0179239
-2.37799
-3.26719
-1.20778
0.00207835
2.95525
-11.0347
-4.77211
-1.646
0.103211
0.283501
-7.77941
-3.94153
-1.67908
0.0108817
1.00566
1.89957
-1.7972
-1.63675
0.0475132
-0.923809
1.73131
-1.34995
-1.85667
0.0580796
0.545211
-2.99095
-2.00838
-0.529701
0.0447108
1.3704
-9.49423
-2.4819
0.321123
0.0397206
-0.157923
-13.999
-1.6285
1.74658
0.0495871
0.223415
-19.9226
-1.32689
2.58887
0.0500442
-0.780188
-17.5196
-2.29804
2.1004
0.0785713
-0.932122
-12.3978
-3.39887
0.981116
0.0438266
-0.703199
-8.46893
-3.32176
0.116244
0.0864706
1.13995
-5.38406
-3.12872
-0.685608
-0.0311348
1.14701
-7.64069
-3.87307
-1.96015
-0.0232099
0.791991
-2.62862
-3.54176
-2.95725
-0.00074687
1.17966
-4.09215
-1.45268
0.503484
0.0285961
-1.73822
-13.0375
0.199231
2.71222
-0.0319125
-13.5122
-1.89339
-20.0681
10.984
-18.5262
23.6655
51.5411
60.6623
-1.79911
10.5212
7.27561
0.117374
-0.616993
-0.367438
0.19394
0.254273
-3.36026
-0.34319
-3.37527
-49.1857
22.2254
-52.0836
23.1048
92.8459
92.9228
92.8784
92.9327
92.7859
92.8956
92.8578
92.9219
96.7625
96.7873
96.7657
96.7891
96.7489
96.7836
96.7588
96.7882
103.743
103.804
103.673
103.779
103.742
103.802
103.685
103.785
99.9565
99.9818