# vtk DataFile Version 3.0
Gravity inversion using rectangular prisms
ASCII
DATASET UNSTRUCTURED_GRID

POINTS	6197	double
0	0	0
0	0	200
0	0	300
0	0	400
0	0	450
0	0	500
0	0	600
0	0	700
0	0	800
0	0	900
0	0	1000
0	50	400
0	50	450
0	50	500
0	100	200
0	100	300
0	100	400
0	100	450
0	100	500
0	100	600
0	100	700
0	100	800
0	100	900
0	100	1000
0	200	0
0	200	200
0	200	300
0	200	400
0	200	500
0	200	600
0	200	700
0	200	800
0	200	900
0	200	1000
0	300	400
0	300	500
0	300	600
0	300	700
0	300	800
0	300	900
0	300	1000
0	400	0
0	400	200
0	400	400
0	400	500
0	400	600
0	400	700
0	400	800
0	400	900
0	400	1000
0	600	0
0	600	200
0	600	400
0	600	600
0	600	800
0	600	1000
0	800	0
0	800	200
0	800	400
0	800	600
0	800	800
0	800	1000
0	1000	0
0	1000	200
0	1000	400
0	1000	600
0	1000	800
0	1000	1000
0	1200	0
0	1200	200
0	1200	400
0	1200	600
0	1200	800
0	1200	1000
0	1400	0
0	1400	200
0	1400	400
0	1400	600
0	1400	800
0	1400	1000
0	1600	0
0	1600	200
0	1600	400
0	1600	600
0	1600	800
0	1600	1000
0	1800	0
0	1800	200
0	1800	400
0	1800	600
0	1800	800
0	1800	1000
0	2000	0
0	2000	200
0	2000	400
0	2000	600
0	2000	800
0	2000	1000
50	0	400
50	0	450
50	0	500
50	50	400
50	50	450
50	50	500
50	100	400
50	100	450
50	100	500
100	0	200
100	0	300
100	0	400
100	0	450
100	0	500
100	0	600
100	0	700
100	0	800
100	0	900
100	0	1000
100	50	400
100	50	450
100	50	500
100	100	200
100	100	300
100	100	400
100	100	450
100	100	500
100	100	600
100	100	700
100	100	800
100	100	900
100	100	1000
100	200	200
100	200	300
100	200	400
100	200	500
100	200	600
100	200	700
100	200	800
100	200	900
100	200	1000
100	300	400
100	300	500
100	300	600
100	300	700
100	300	800
100	300	900
100	300	1000
100	400	400
100	400	500
100	400	600
100	400	700
100	400	800
100	400	900
100	400	1000
150	0	400
150	0	450
150	0	500
150	50	400
150	50	450
150	50	500
150	100	400
150	100	450
150	100	500
200	0	0
200	0	200
200	0	300
200	0	400
200	0	450
200	0	500
200	0	600
200	0	700
200	0	800
200	0	900
200	0	1000
200	50	400
200	50	450
200	50	500
200	100	200
200	100	300
200	100	400
200	100	450
200	100	500
200	100	600
200	100	700
200	100	800
200	100	900
200	100	1000
200	200	0
200	200	200
200	200	300
200	200	400
200	200	500
200	200	600
200	200	700
200	200	800
200	200	900
200	200	1000
200	300	200
200	300	300
200	300	400
200	300	500
200	300	600
200	300	700
200	300	800
200	300	900
200	300	1000
200	400	0
200	400	200
200	400	300
200	400	400
200	400	500
200	400	600
200	400	700
200	400	800
200	400	900
200	400	1000
200	500	200
200	500	300
200	500	400
200	600	0
200	600	100
200	600	200
200	600	300
200	600	400
200	600	500
200	600	600
200	600	800
200	600	1000
200	700	0
200	700	100
200	700	200
200	700	300
200	700	400
200	700	500
200	700	600
200	800	0
200	800	100
200	800	200
200	800	300
200	800	400
200	800	500
200	800	600
200	800	800
200	800	1000
200	1000	0
200	1000	200
200	1000	400
200	1000	600
200	1000	800
200	1000	1000
200	1200	0
200	1200	200
200	1200	400
200	1200	600
200	1200	800
200	1200	1000
200	1400	0
200	1400	200
200	1400	400
200	1400	600
200	1400	800
200	1400	1000
200	1600	0
200	1600	200
200	1600	400
200	1600	600
200	1600	800
200	1600	1000
200	1800	0
200	1800	200
200	1800	400
200	1800	600
200	1800	800
200	1800	1000
200	2000	0
200	2000	200
200	2000	400
200	2000	600
200	2000	800
200	2000	1000
300	0	400
300	0	500
300	0	600
300	0	700
300	0	800
300	100	400
300	100	500
300	100	600
300	100	700
300	100	800
300	200	200
300	200	300
300	200	400
300	200	500
300	200	600
300	200	700
300	200	800
300	200	900
300	200	1000
300	300	200
300	300	300
300	300	400
300	300	800
300	300	900
300	300	1000
300	400	200
300	400	300
300	400	400
300	400	800
300	400	900
300	400	1000
300	500	200
300	500	300
300	500	400
300	600	0
300	600	100
300	600	200
300	600	300
300	600	400
300	600	500
300	600	600
300	700	0
300	700	100
300	700	200
300	700	300
300	700	400
300	700	500
300	700	600
300	800	0
300	800	100
300	800	200
300	800	300
300	800	400
300	800	500
300	800	600
400	0	0
400	0	200
400	0	300
400	0	400
400	0	500
400	0	600
400	0	700
400	0	800
400	0	1000
400	100	200
400	100	300
400	100	400
400	100	500
400	100	600
400	100	700
400	100	800
400	200	0
400	200	200
400	200	300
400	200	400
400	200	500
400	200	600
400	200	700
400	200	800
400	200	900
400	200	1000
400	300	200
400	300	300
400	300	400
400	300	600
400	300	700
400	300	800
400	300	900
400	300	1000
400	400	0
400	400	100
400	400	200
400	400	300
400	400	400
400	400	500
400	400	600
400	400	700
400	400	800
400	400	900
400	400	1000
400	500	0
400	500	100
400	500	200
400	500	300
400	500	400
400	500	500
400	500	600
400	600	0
400	600	100
400	600	150
400	600	200
400	600	250
400	600	300
400	600	350
400	600	400
400	600	500
400	600	600
400	600	700
400	600	800
400	600	1000
400	650	100
400	650	150
400	650	200
400	650	250
400	650	300
400	650	350
400	650	400
400	700	0
400	700	100
400	700	150
400	700	200
400	700	250
400	700	300
400	700	350
400	700	400
400	700	500
400	700	600
400	700	700
400	700	800
400	750	200
400	750	250
400	750	300
400	750	350
400	750	400
400	800	0
400	800	100
400	800	200
400	800	250
400	800	300
400	800	350
400	800	400
400	800	500
400	800	600
400	800	700
400	800	800
400	800	1000
400	900	0
400	900	100
400	900	200
400	900	300
400	900	400
400	900	500
400	900	600
400	1000	0
400	1000	100
400	1000	200
400	1000	300
400	1000	400
400	1000	500
400	1000	600
400	1000	800
400	1000	1000
400	1100	200
400	1100	300
400	1100	400
400	1200	0
400	1200	200
400	1200	300
400	1200	400
400	1200	600
400	1200	800
400	1200	1000
400	1400	0
400	1400	200
400	1400	400
400	1400	600
400	1400	800
400	1400	1000
400	1600	0
400	1600	200
400	1600	400
400	1600	600
400	1600	800
400	1600	1000
400	1800	0
400	1800	200
400	1800	400
400	1800	600
400	1800	800
400	1800	1000
400	2000	0
400	2000	200
400	2000	400
400	2000	600
400	2000	800
400	2000	1000
450	600	100
450	600	150
450	600	200
450	600	250
450	600	300
450	600	350
450	600	400
450	650	100
450	650	150
450	650	200
450	650	250
450	650	300
450	650	350
450	650	400
450	700	100
450	700	150
450	700	200
450	700	250
450	700	300
450	700	350
450	700	400
450	750	200
450	750	250
450	750	300
450	750	350
450	750	400
450	800	200
450	800	250
450	800	300
450	800	350
450	800	400
500	0	200
500	0	300
500	0	400
500	0	500
500	0	600
500	100	200
500	100	300
500	100	400
500	100	500
500	100	600
500	200	200
500	200	300
500	200	400
500	200	500
500	200	600
500	200	700
500	200	800
500	200	900
500	200	1000
500	300	600
500	300	700
500	300	800
500	300	900
500	300	1000
500	400	0
500	400	100
500	400	200
500	400	300
500	400	400
500	400	500
500	400	600
500	400	700
500	400	800
500	400	900
500	400	1000
500	500	0
500	500	100
500	500	200
500	500	250
500	500	300
500	500	350
500	500	400
500	500	500
500	500	600
500	550	200
500	550	250
500	550	300
500	550	350
500	550	400
500	600	0
500	600	100
500	600	150
500	600	200
500	600	250
500	600	300
500	600	350
500	600	400
500	600	450
500	600	500
500	600	600
500	600	700
500	600	800
500	650	100
500	650	150
500	650	200
500	650	250
500	650	300
500	650	350
500	650	400
500	650	450
500	650	500
500	700	0
500	700	100
500	700	150
500	700	200
500	700	250
500	700	300
500	700	350
500	700	400
500	700	450
500	700	500
500	700	600
500	700	700
500	700	800
500	750	100
500	750	150
500	750	200
500	750	250
500	750	300
500	750	350
500	750	400
500	800	0
500	800	100
500	800	150
500	800	200
500	800	250
500	800	300
500	800	350
500	800	400
500	800	500
500	800	600
500	800	700
500	800	800
500	850	200
500	850	250
500	850	300
500	850	350
500	850	400
500	900	0
500	900	100
500	900	200
500	900	250
500	900	300
500	900	350
500	900	400
500	900	500
500	900	600
500	1000	0
500	1000	100
500	1000	200
500	1000	300
500	1000	400
500	1000	500
500	1000	600
500	1100	200
500	1100	300
500	1100	400
500	1200	200
500	1200	300
500	1200	400
550	500	200
550	500	250
550	500	300
550	500	350
550	500	400
550	550	200
550	550	250
550	550	300
550	550	350
550	550	400
550	600	100
550	600	150
550	600	200
550	600	250
550	600	300
550	600	350
550	600	400
550	600	450
550	600	500
550	650	100
550	650	150
550	650	200
550	650	250
550	650	300
550	650	350
550	650	400
550	650	450
550	650	500
550	700	100
550	700	150
550	700	200
550	700	250
550	700	300
550	700	350
550	700	400
550	700	450
550	700	500
550	750	100
550	750	150
550	750	200
550	750	250
550	750	300
550	750	350
550	750	400
550	800	100
550	800	150
550	800	200
550	800	250
550	800	300
550	800	350
550	800	400
550	850	200
550	850	250
550	850	300
550	850	350
550	850	400
550	900	200
550	900	250
550	900	300
550	900	350
550	900	400
600	0	0
600	0	200
600	0	300
600	0	400
600	0	500
600	0	600
600	0	800
600	0	1000
600	100	200
600	100	300
600	100	400
600	100	500
600	100	600
600	200	0
600	200	200
600	200	300
600	200	400
600	200	500
600	200	600
600	200	700
600	200	800
600	200	900
600	200	1000
600	300	200
600	300	300
600	300	400
600	300	500
600	300	600
600	300	700
600	300	800
600	300	900
600	300	1000
600	400	0
600	400	100
600	400	200
600	400	250
600	400	300
600	400	350
600	400	400
600	400	500
600	400	600
600	400	700
600	400	800
600	400	900
600	400	1000
600	450	200
600	450	250
600	450	300
600	450	350
600	450	400
600	500	0
600	500	100
600	500	150
600	500	200
600	500	250
600	500	300
600	500	350
600	500	400
600	500	450
600	500	500
600	500	600
600	500	700
600	500	800
600	550	100
600	550	150
600	550	200
600	550	250
600	550	300
600	550	350
600	550	400
600	550	450
600	550	500
600	600	0
600	600	100
600	600	150
600	600	200
600	600	250
600	600	300
600	600	350
600	600	400
600	600	450
600	600	500
600	600	550
600	600	600
600	600	700
600	600	800
600	600	1000
600	650	100
600	650	150
600	650	200
600	650	250
600	650	300
600	650	350
600	650	400
600	650	450
600	650	500
600	650	550
600	650	600
600	700	0
600	700	100
600	700	150
600	700	200
600	700	250
600	700	300
600	700	350
600	700	400
600	700	450
600	700	500
600	700	550
600	700	600
600	700	700
600	700	800
600	750	100
600	750	150
600	750	200
600	750	250
600	750	300
600	750	350
600	750	400
600	750	500
600	750	550
600	750	600
600	800	0
600	800	100
600	800	150
600	800	200
600	800	250
600	800	300
600	800	350
600	800	400
600	800	500
600	800	550
600	800	600
600	800	700
600	800	800
600	800	1000
600	850	200
600	850	250
600	850	300
[...]
CELL_DATA	4231
SCALARS model double 1
LOOKUP_TABLE table0
1.62803
-37.114
-31.565
-9.26254
-22.3722
-28.1754
-27.6795
-11.8858
-22.7297
-140.811
-154.23
-120.999
-140.732
-135.224
-146.743
-116.112
-134.252
-104.641
-64.4457
-70.2003
-88.5688
-90.2315
-73.6376
-80.4415
-64.1451
-72.3129
-55.5351
-65.9603
-62.5688
-5.95689
-35.8057
10.3252
31.6569
24.3248
37.2009
38.007
49.1703
48.6023
53.0773
117.78
118.59
117.787
118.538
117.63
118.341
117.624
118.279
0.490701
4.67121
-26.6734
-24.6863
-28.0886
-24.3573
-24.7877
-24.3296
-25.8286
-24.1643
27.6636
28.6089
27.9591
28.8728
27.6147
28.3125
27.7943
28.4973
75.0945
75.6714
75.1919
75.7388
74.7722
75.3111
74.8504
75.3591
1.17855
-11.3822
-18.2818
16.1496
48.5743
0.458207
8.03365
2.59656
16.8393
41.3357
1.14804
-9.65067
4.97663
19.3225
42.1819
-0.434528
1.09442
12.4087
23.0595
40.5679
-0.275467
2.19731
13.3401
23.4934
35.4476
0.933458
-16.3419
6.49707
21.0755
31.4926
0.0963882
3.46484
10.0844
21.2411
32.583
0.636786
-12.9029
-3.57961
13.5239
30.4315
0.939269
-7.74586
21.5814
12.3232
23.2962
13.822
10.9192
9.61381
15.5363
12.0055
66.3932
67.0819
66.5735
67.1682
66.3989
67.0626
66.589
67.1372
101.671
-0.605621
17.3093
22.6197
24.1226
22.6975
19.6593
22.9312
36.6131
25.5572
-9.69553
20.438
50.3731
50.8269
50.4494
50.8575
50.2472
50.6692
50.3121
50.6846
1.05907
-16.2995
-12.6969
-15.7725
-11.5329
1.83138
-9.14019
1.18307
-9.2449
-15.0402
-0.571765
16.1942
-0.657519
4.55697
0.682889
4.09844
-2.51183
20.4233
3.60848
-1.65622
22.5232
16.1386
17.2872
13.5195
15.1609
15.2959
20.5112
16.6947
-7.82521
-7.28473
-9.64627
-7.56582
-6.87482
-7.04185
-7.45799
-7.02959
-0.648735
3.37639
2.10406
10.5419
-11.3395
-1.34615
4.58503
-0.356351
27.6184
-8.51226
-7.44307
6.81471
-1.2152
16.4573
-6.82408
-9.90714
3.9543
-0.524161
15.0275
-7.64824
-7.71135
3.40629
0.0344152
1.13391
-5.8191
3.21681
13.8594
0.0336136
-0.935263
2.58985
13.7102
27.4739
1.80256
-77.9741
-45.0953
-21.6772
-28.0274
-53.967
-45.0414
-0.391947
-29.4614
29.173
29.966
30.0144
30.4353
28.8486
30.0148
30.0663
30.5149
58.4145
83.2265
0.694545
2.90768
-13.8858
3.78085
4.13367
4.01423
4.26611
3.81628
4.14551
4.02521
4.25165
28.5784
28.9619
28.6331
28.9627
28.5778
28.9308
28.6079
28.9101
-2.17012
8.20101
-2.34362
12.9413
2.26217
-16.8888
6.14204
22.9792
36.6983
43.1158
39.78
42.3469
42.2757
42.9837
31.1968
54.3556
92.7768
106.93
94.9256
91.0777
168.008
155.08
51.6505
47.4067
77.2746
60.6892
63.8312
54.7701
90.7404
68.1853
0.282782
-1.89106
0.0974909
-1.73628
-0.512198
-2.3448
0.0471901
-2.07458
-23.1347
-10.3893
1.66297
-2.13645
49.2358
-22.9368
20.8557
39.7388
10.065
-10.3499
-3.21176
12.5142
-18.2431
11.673
50.3988
49.5456
-6.23477
61.793
99.8153
69.931
56.3222
80.6286
19.971
13.0508
6.52484
15.6875
29.3031
61.3464
25.9466
40.415
49.2304
83.937
75.6877
45.9829
65.5991
67.6172
114.421
51.1353
104.269
73.9585
88.0234
72.706
90.3837
127.214
115.108
129.9
121.836
3.89728
45.5422
-15.9628
19.7147
27.0815
72.4011
16.787
42.9065
55.9626
80.6814
26.3127
61.2836
107.941
114.483
70.4919
95.8556
49.4485
152.701
55.9585
150.475
85.07
223.951
92.4787
231.498
169.36
146.422
183.563
157.709
197.349
161.778
217.492
174.095
80.1836
110.474
64.7334
72.7785
119.347
171.321
114.331
109.885
153.615
154.411
99.4335
118.505
200.066
178.408
147.932
147.192
76.9143
59.9478
79.2353
62.1779
83.0202
74.2876
90.1268
79.3881
88.038
78.5893
95.5967
83.7671
57.1143
82.8255
60.9655
-18.9605
-20.0174
-19.0151
-20.1522
-19.3438
-20.2558
-19.4685
-20.4308
-29.7682
10.6939
-4.26675
5.30332
26.8201
7.38254
26.9024
12.0744
36.0336
-11.4849
23.6061
-29.7115
16.4477
45.2181
46.5701
13.5281
19.8684
83.8272
118.219
63.6991
78.6607
61.9779
56.4239
28.2892
29.883
112.01
85.6372
72.992
60.9142
26.3863
26.6132
26.5916
26.4969
24.8232
25.5198
27.5546
26.6809
25.9138
25.5858
-11.9057
-32.7057
2.66527
11.379
16.1296
20.9892
18.2281
10.587
14.5784
20.9306
17.2823
-11.7495
-19.556
-27.7221
-0.120573
29.4293
-15.6726
-28.4716
-23.4043
-0.710276
20.3497
-10.4695
-24.3692
-17.057
-0.504683
4.24442
-0.967955
-2.44723
2.52274
-0.699675
0.806391
15.1955
21.9835
30.0876
-0.0627019
13.769
27.1896
46.474
68.7502
2.44168
48.3019
6.7258
22.3331
37.3268
19.9004
-10.1404
28.4788
43.7773
-31.3553
-31.3765
-30.9047
-31.0837
-31.3187
-31.2613
-30.9718
-31.0718
-11.1052
-10.8073
-10.9553
-10.7473
-10.9928
-10.7276
-10.9123
-10.7161
13.266
13.5854
13.2668
13.5418
13.321
13.6094
13.2861
13.5394
3.60597
37.3581
14.249
40.3753
87.7114
70.7183
117.862
4.84444
81.302
40.6436
107.771
5.20682
41.5768
23.4459
19.9739
91.8855
32.2205
117.973
110.2
106.635
90.972
131.21
45.7316
70.0839
89.4578
92.8026
67.5109
80.77
95.3484
95.9986
71.7147
71.2733
79.7118
75.6032
78.0993
75.1964
84.4311
78.9728
131.973
207.387
167.597
249.921
186.474
231.095
220.633
269.708
166.832
142.478
183.798
150.011
180.263
151.846
201.02
163.152
73.3516
78.3862
86.76
87.4479
77.4282
78.0952
85.1812
84.0145
132.054
123.662
139.875
129.293
126.9
119.514
135.458
125.762
176.348
207.198
205.577
241.192
165.844
188.385
184.489
212.412
239.667
207.431
275.165
244.46
232.735
205.644
269.98
243.554
-19.4668
-25.4097
26.975
10.537
39.747
19.491
21.0073
6.94572
32.8786
14.9747
-21.6293
-21.5976
-25.4768
-19.8624
-24.6308
-23.3008
-26.2031
-21.9933
-25.6131
-31.2023
9.81527
-4.64076
27.2155
4.7653
1.5637
-9.83436
16.2129
-1.92731
-28.3159
-44.082
-43.9465
-43.9551
-43.8494
-44.1142
-43.9721
-44.025
-43.9085
-28.8461
30.0574
108.613
123.708
92.4815
117.856
74.5334
133.981
98.7014
148.779
26.9367
75.8221
122.298
53.5147
128.339
103.642
149.858
100.823
145.447
32.7512
63.6234
141.916
96.0557
167.623
82.8963
162.344
101.112
183.591
45.0699
111.97
182.723
122.555
174.852
113.355
178.368
99.6002
166.102
178.946
297.315
166.443
284.203
225.208
305.008
209.914
299.776
214.795
182.218
221.865
185.753
208.654
186.074
215.164
189.359
144.24
231.096
130.326
165.672
185.321
271.099
161.761
225.064
224.515
197.692
204.43
189.101
227.049
203.738
222.832
201.219
223.318
288.407
221.934
298.108
217.012
268.816
219.611
278.41
219.586
205.939
293.596
182.114
264.247
209.851
280.998
185.177
257.987
223.148
140.315
129.608
148.198
136.074
148.792
135.414
161.973
145.63
71.0688
67.2707
75.9781
70.9581
72.6314
68.9969
77.4274
72.4581
142.965
97.6692
93.2964
98.8798
93.6134
101.326
96.7246
103.032
97.4433
216.435
185.602
263.585
232.371
214.282
184.7
264.863
232.919
107.392
97.4561
115.89
101.665
106.086
96.3609
115.221
101.02
174.829
143.831
131.979
142.502
129.669
144.909
132.355
144.41
130.551
-39.4366
-44.5644
-36.8439
-43.7298
-37.2409
-40.3159
-35.9592
-39.8608
-38.5731
-41.132
-37.5909
-40.8748
-48.5567
-26.944
-37.1581
-25.8108
-37.2907
-30.9821
-40.0415
-30.1778
-40.3963
-47.9824
-53.8847
32.571
73.567
12.7347
24.5162
38.3001
111.186
130.641
63.9608
90.7355
92.3644
131.745
67.9342
95.0195
24.0765
7.08549
109.33
131.286
80.4464
98.8696
123.114
176.101
95.1242
126.661
151.218
150.031
116.342
128.951
190.899
177.841
156.966
160.435
50.3233
57.8082
34.5872
49.5109
52.073
85.4086
38.7413
59.8607
100.768
146.512
207.3
103.774
141.217
143.535
201.134
101.38
142.03
152.381
49.615
98.9842
30.2905
59.3292
48.9768
97.835
25.136
60.0579
106.514
122.085
91.2183
86.7317
89.3104
84.6927
96.736
91.9977
95.8146
90.8313
84.0537
58.4025
138.821
120.553
112.797
117.324
109.488
120.673
113.412
117.544
110.227
90.7099
68.3431
-23.7751
-31.7139
-22.4801
-30.7632
-18.1039
-24.5813
-16.2937
-23.643
-20.8389
-26.5645
-19.4262
-25.9804
-36.1496
-29.2596
-35.6286
-62.5514
7.23929
10.702
1.12048
64.1816
13.2172
20.8165
9.14865
4.65309
36.9982
24.9436
16.0903
6.7506
14.1682
10.121
22.5001
19.7345
20.3202
17.8192
36.8254
28.8278
20.7185
49.5422
27.1586
8.21348
5.49329
9.40748
4.80514
7.01107
5.14034
7.9852
4.92728
-29.5779
-57.5489
-1.43287
29.1257
4.27412
0.0806843
11.8909
-21.8036
7.9494
20.1577
34.8424
31.6748
30.8111
33.6648
25.6864
29.1076
34.0546
33.1371
-9.95177
-11.5223
-8.04506
-10.3697
-11.3106
-12.4519
-8.69194
-11.6045
-32.5744
-44.1967
-2.41516
13.2358
-1.41028
6.33978
6.92393
9.98729
3.41669
9.1546
45.8896
21.6522
43.1228
18.0222
43.362
37.7171
28.791
30.3071
-19.2334
-18.0483
-22.1902
-20.1581
-6.57484
-12.348
-8.38964
-13.2375
-29.7918
-27.456
-1.48075
21.4068
-7.06169
-3.37504
-2.88702
-1.08052
0.28702
11.7198
25.8646
32.4352
0.545776
-5.19933
4.04294
0.150924
1.42954
-0.959149
1.73814
-4.93018
0.214115
19.8404
38.6641
59.9863
5.056
-30.6479
6.46105
-26.8396
-1.70381
26.9101
54.3051
33.4551
56.9941
47.1993
74.3792
12.748
63.5522
1.34081
-11.0115
39.235
-27.7806
64.6493
37.7194
58.1482
-33.4673
91.0619
32.1543
31.6527
33.1997
32.5826
31.5163
31.4238
32.214
32.08
-42.0219
-41.9057
-41.9319
-42.018
-42.4455
-42.2242
-42.607
-42.4885
-20.0064
-19.7664
-19.9916
-19.8
-19.9345
-19.7093
-19.9678
-19.778
4.16791
4.42996
4.10112
4.33628
4.20947
4.45068
4.11568
4.33631
3.5471
22.9881
14.165
81.8
91.8269
77.7144
119.912
19.5927
77.4712
48.4909
104.929
1.04596
30.5229
0.958901
67.5318
103.376
132.441
122.118
165.274
149.405
122.694
113.726
152.514
137.795
124.62
128.665
133.428
137.945
115.947
124.285
119.182
131.104
212.714
206.857
237.022
231.199
202.003
198.32
219.904
217.285
121.529
145.621
129.305
160.987
138.349
150.582
142.754
161.786
119.894
105.061
146.839
124.995
114.663
98.8174
134.635
113.141
131.743
172.338
111.526
173.443
132.139
164.187
99.5542
157.477
198.542
184.26
211.598
196.498
176.616
164.096
178.887
166.947
-48.9087
-53.8824
-45.5111
-52.5069
-54.1344
-57.4595
-50.8927
-56.1137
-63.0748
-35.029
-45.7794
-21.6413
-38.2842
-41.0874
-49.6136
-30.3667
-43.5968
-57.5342
-57.5727
-54.1637
-55.1702
-58.2284
-58.1535
-55.7213
-56.3692
-59.7637
-62.1579
-56.5551
-60.7735
-61.9229
-64.045
-58.639
-62.5328
-65.9364
-49.2893
-56.5556
-40.6005
-51.7951
-51.7316
-58.2951
-45.0281
-54.5334
-64.8188
-59.7336
-59.5788
-59.6768
-59.5423
-59.753
-59.594
-59.7168
-59.5806
-41.0922
22.7513
71.3816
18.6438
56.5859
19.6438
69.9365
13.0492
69.4603
89.5418
123.572
99.4679
137.041
69.8982
137.081
107.619
148.918
22.1191
70.0743
15.7692
37.046
35.0742
108.102
25.1306
57.6737
98.091
134.527
74.2721
124.564
117.907
136.927
75.8521
115.62
18.4399
70.0054
117.353
91.0151
144.825
36.362
93.861
43.142
100.579
22.0608
89.5826
123.914
71.2357
95.3057
50.7152
90.0729
47.8138
59.984
201.531
217.461
222.854
202.644
152.293
200.421
196.321
193.557
193.275
190.561
187.087
182.091
181.812
164.078
167.055
136.116
156.398
133.276
149.079
106.675
135.865
153.413
150.885
145.651
144.911
141.332
139.447
130.7
131.193
193.959
161.196
243.578
208.847
165.296
136.918
208.105
177.081
103.961
68.4833
141.026
96.9154
78.959
48.0624
111.103
72.4605
174.978
160.615
120.362
160.852
121.976
131.083
95.856
133.305
98.3561
128.257
94.3877
162.332
124.699
86.6174
58.9078
108.251
77.7152
33.5493
7.73768
56.9867
25.6407
6.11592
-14.9721
22.5987
-2.14302
149.912
126.974
134.073
119.556
94.8333
77.5239
81.1349
69.7666
81.7072
51.3904
86.4777
57.1807
41.6725
18.4445
45.2969
22.8019
-69.3921
-71.7434
-67.9407
-71.555
-70.7746
-72.4982
-69.7486
-72.4585
-79.1911
-62.4171
-71.4791
-61.2473
-71.8008
-66.7893
-74.2068
-66.1325
-74.7184
-78.7773
-80.5358
-82.3441
-79.588
-82.1449
-72.0025
39.3969
44.1968
27.6456
17.4783
33.1217
2.37642
29.8958
-0.746573
127.955
183.486
86.6583
137.662
106.415
149.936
73.3136
116.212
152.698
67.8143
84.9293
80.1928
108.413
47.6197
88.163
64.528
89.2533
41.7396
74.8394
113.638
114.48
104.744
108.503
99.292
103.084
90.9074
96.8675
41.4416
68.0517
126.963
105.59
92.0691
98.027
86.1647
97.28
86.2579
90.8619
81.1654
75.8482
45.2158
88.8237
85.0881
78.1904
76.8243
68.9222
68.8426
60.5966
62.0625
55.5745
49.9302
50.2565
46.4756
46.6409
43.0372
42.7862
40.5965
49.6598
47.4856
46.8888
44.9093
39.2718
38.9444
36.8688
36.4016
25.5096
23.0835
24.4443
21.9699
21.7604
19.8957
20.6631
18.6756
-57.7321
-67.6811
-57.0501
-68.0229
-62.2233
-71.1099
-61.9085
-71.7087
-75.1412
-69.3315
-74.3878
-75.3329
-78.69
-74.3427
-77.9786
-86.7778
15.4251
33.5012
15.1714
29.2606
24.4512
19.2643
21.2123
18.6692
23.343
27.8625
17.8976
15.1642
15.401
16.9513
10.7476
20.4995
8.86522
-58.8323
-59.4137
-58.6289
-59.427
-59.2485
-59.608
-58.9804
-59.505
-83.6299
10.9888
-33.8001
-15.6714
-9.75854
-13.724
7.1318
7.89284
46.0162
-5.78764
22.5624
8.19113
7.97396
25.682
42.9989
65.3308
56.2338
72.0342
85.0421
31.2925
44.2659
26.1719
83.4335
88.3521
81.3011
99.8548
75.1978
103.498
82.4027
108.103
52.377
40.8778
13.8113
20.1496
20.1681
44.5027
50.5974
97.1924
50.7718
111.586
44.4013
51.4517
73.5246
78.3007
116.485
104.139
153.247
143.009
79.9771
78.4034
115.473
158.364
137.204
186.276
152.432
202.452
174.767
228.746
175.301
169.765
211.171
211.149
213.991
209.037
257.009
257.101
37.9846
1.11913
58.7845
53.9264
75.7709
66.2499
100.304
83.819
129.155
106.542
21.187
67.8804
38.8208
160.021
131.953
196.619
164.589
198.571
159.345
244.291
201.508
73.3163
59.7601
86.2981
60.4174
82.4455
65.3879
97.4316
67.1896
-32.5969
-32.7449
-31.967
-32.3854
-32.7619
-33.0596
-32.2004
-32.7505
-63.4027
17.6764
21.1741
7.80546
-6.42004
-1.45222
21.4495
9.31139
11.9535
55.5153
36.1087
74.1708
39.3838
61.0287
93.1677
49.5856
76.5099
73.5265
98.189
59.8127
86.1604
-0.800806
11.7977
1.71216
23.4748
16.5838
44.4617
14.2853
44.4275
20.9728
61.7242
42.2956
49.9436
40.0864
67.6543
30.5554
49.9499
35.4854
43.8796
38.8202
35.92
64.2894
100.76
46.4325
74.791
65.9296
72.4839
54.9408
70.6008
146.159
146.041
120.729
136.337
8.17618
16.4375
21.1005
22.8193
9.74708
29.2875
12.7945
23.3892
102.152
118.875
181.511
102.635
147.383
159.425
216.647
124.951
176.241
211.346
219.075
182.443
191.805
253.744
262.479
211.457
223.047
97.371
131.847
136.158
68.3784
70.991
145.29
156.611
78.1968
85.8256
75.8198
67.065
71.5812
60.9149
138.735
114.901
132.023
108.05
29.7539
73.2102
56.3218
47.7691
33.2808
113.904
91.154
81.3168
63.9326
27.1741
206.705
173.726
185.689
156.682
251.769
209.245
218.447
181.956
90.4201
54.3502
84.2021
49.4881
104.01
63.0376
98.1418
59.3106
126.354
109.853
83.3241
76.7497
144.287
123.751
91.5732
82.0352
37.4402
-23.3831
-24.4612
-23.2661
-24.5932
-22.2331
-23.6472
-21.9795
-23.6209
-33.9522
1.57117
19.0587
-3.88528
20.5056
11.0107
-22.6688
4.2357
-20.5684
8.77453
28.1266
45.8676
45.4014
30.6509
32.44
14.0311
22.7485
-2.32261
-8.31379
5.30411
-4.72819
-1.97098
-7.77266
-2.28893
-6.62197
-2.69591
-4.42953
0.35703
3.81701
10.1103
28.4996
31.2887
1.43153
9.79238
10.0906
9.95783
9.9562
9.8005
10.1237
9.79481
9.91722
22.1164
37.7697
57.396
-1.12088
8.53678
-0.29454
4.64938
-0.518463
18.8699
-2.34964
11.9384
52.5581
-42.0429
86.3578
89.4831
85.4391
88.5834
87.367
90.0425
87.5874
89.5355
23.4267
17.9991
-69.8222
-70.0323
-69.2996
-69.6814
-70.2767
-70.3456
-69.6359
-69.9804
101.106
100.448
121.213
110.251
104.793
102.946
121.537
111.622
9.14202
8.79402
9.65032
9.15508
8.97586
8.53862
9.58331
8.93526
-42.8959
-42.7486
-43.0093
-42.9829
-43.4004
-43.4442
-43.2957
-43.4985
-22.0694
-21.8503
-22.1282
-21.9401
-22.0592
-21.8426
-22.1328
-21.9469
0.955533
1.18041
0.842376
1.05031
0.954193
1.16422
0.828191
1.0234
-0.140224
27.9082
5.93921
12.1793
-1.64247
34.2697
0.830694
18.8445
15.3653
-0.383948
25.1707
8.90357
27.0668
3.18677
38.7145
12.8067
-15.8212
-15.9755
-14.1693
-15.2386
-16.3336
-16.5816
-15.1624
-16.208
-2.40526
-6.06835
3.28988
-1.01818
-2.91013
-8.40866
-0.3513
-6.21374
0.560805
-6.68591
6.72674
-1.69821
-0.986731
-9.11104
0.788963
-6.984
-7.75142
-17.263
-25.7368
-21.8396
-78.8548
-79.1814
-78.2713
-78.9449
-79.0244
-79.5726
-78.4313
-79.2623
-69.0067
-47.4543
12.9349
28.0158
22.4157
18.2555
8.11832
31.9659
23.8355
5.82605
11.7165
-13.3836
-10.2638
-32.1091
-24.983
15.0731
21.7771
5.75698
24.4608
6.55671
-24.9492
-23.2762
2.90826
-10.8185
63.2866
61.3561
64.7413
60.9054
51.5737
48.3245
43.6936
39.7469
60.9918
48.5873
54.7038
43.4708
5.12355
-2.13124
-9.01994
-18.0382
53.7822
49.9202
30.687
30.581
22.2117
19.5977
0.150939
1.01452
29.9772
14.8629
3.71221
-4.8408
-35.0312
-51.6949
-52.8572
-65.0285
-22.1472
-45.0369
-37.5308
-58.4876
-48.8992
-61.5896
-69.1261
-79.3598
-78.243
-81.4639
-82.4994
-84.589
-83.9058
-85.38
-89.9363
-89.4232
-75.6399
-102.054
-97.9008
-117.95
-107.141
-131.12
-124.343
-141.526
-128.641
-132.192
-140.924
-140.938
-147.134
-143.837
-155.88
-150.904
-81.6788
-90.672
-80.0786
-90.0703
-88.9021
-95.3026
-90.6075
-96.352
-101.411
-81.5182
-90.0182
-84.7864
-91.5293
-94.2271
-97.6456
-98.5858
-100.079
-100.751
-104.514
-104.229
-106.115
-104.19
-100.157
-83.4594
29.7282
13.366
29.2
10.7553
22.6587
18.3488
24.3979
19.2872
15.7502
16.0497
8.65377
12.2413
1.81364
3.20092
1.19117
3.46592
-10.0936
-12.6358
-17.222
-18.4644
-26.371
-26.9743
-29.0144
-28.9531
36.6751
5.72328
-84.7968
-93.7304
-82.9729
-90.1687
-92.9014
-98.1573
-88.4754
-91.7703
-115.214
11.3587
12.3585
18.2309
19.1391
14.8024
14.8626
20.6621
20.6013
-50.8
-77.2589
-80.7802
-79.6868
-82.1961
-87.7235
-89.3454
-90.0993
-91.0273
-86.6348
-68.8694
-73.046
-65.1319
-70.0257
-75.2086
-78.4988
-72.067
-75.9979
-84.0349
-89.2108
-89.1361
-82.6452
-85.2117
-106.669
-101.977
24.5408
41.6076
18.0922
45.9732
44.1836
44.8432
-7.72041
51.7313
42.3535
-9.19833
-33.8304
18.28
-9.40769
-38.7965
-62.8808
11.6631
-18.3001
-86.1266
-86.4492
-85.5569
-86.1607
-85.7745
-86.2536
-85.1257
-85.8492
-98.9134
20.5174
57.2375
55.0144
110.025
30.7393
45.5903
40.0539
105.137
79.7133
77.9416
78.1849
121.088
117.156
83.6202
84.0611
124.879
120.755
174.626
212.735
198.892
250.377
181.651
212.627
207.919
252.333
224.619
225.932
272.194
277.229
234.01
239.133
278.167
286.807
89.8257
101.407
105.345
137.717
137.343
111.601
116.277
145.027
145.414
183.237
216.792
208.942
253.749
185.831
215.947
214.998
259.344
246.942
257.029
283.322
295.988
254.834
267.209
288.935
300.549
80.6553
41.1427
214.526
167.624
264.766
218.807
223.394
172.836
275.425
227.703
80.0625
64.6451
96.6403
67.5356
79.3554
64.9806
95.0051
67.8661
96.0112
93.5745
115.51
106.238
98.3009
95.395
115.665
107.357
61.0307
231.512
186.078
284.807
236.841
233.358
192.784
279.904
236.148
85.7503
72.3425
97.7269
73.2695
87.6256
74.5461
98.1256
75.9303
-23.0174
-60.552
-0.339231
-38.7706
-16.8157
-51.2643
10.1767
-30.4507
-74.8941
37.6661
76.5435
79.3346
41.0364
70.7219
88.4373
98.0848
39.0177
36.8546
24.6488
29.9104
54.1008
25.7621
33.3763
-4.20388
-5.52591
-16.6884
-22.619
47.1266
97.0304
113.309
49.673
50.6815
110.219
119.547
60.3444
73.2285
36.3975
0.127442
-11.5887
-6.73852
-31.6044
22.3666
18.2903
19.7073
2.71771
182.205
233.82
116.92
182.818
193.473
238.526
122.661
182.622
270.14
280.811
220.953
240.995
272.141
287.825
228.843
250.752
39.6023
94.0574
7.82389
25.4497
33.3244
82.7092
-15.9585
10.8128
138.462
154.242
72.7814
99.4276
135.672
159.258
73.3068
103.314
202.567
241.646
134.161
191.043
213.673
251.869
156.178
207.514
279.593
46.502
94.2977
-5.69705
26.1727
67.1153
117.27
15.0115
52.5265
144.052
165.775
81.4798
106.663
156.218
169.69
94.4793
110.409
272.737
228.936
234.899
196.86
283.854
239.14
242.946
204.762
109.832
70.0998
104.975
67.3291
110.805
72.8703
106.8
70.4459
152.677
130.894
103.11
89.4336
155.505
131.6
103.997
90.0539
33.0328
293.888
245.293
250.15
209.268
287.741
243.615
248.623
210.44
111.21
75.7061
106.347
72.3458
109.664
78.3965
105.478
75.1965
156.187
129.916
102.156
89.0517
150.607
125.074
100.49
87.8583
29.2889
10.5904
-24.0077
3.34187
-18.6635
22.0078
-18.5228
13.0904
-17.5073
-41.2983
11.4284
2.7275
-1.09298
43.7083
9.87529
29.7371
2.94828
38.6562
1.38173
-11.7606
18.8934
-11.5281
-9.58619
-32.8953
9.75016
-23.314
65.4165
22.0039
16.099
1.90178
-17.331
15.3377
8.46165
7.62564
-7.24275
16.7506
6.3118
52.8683
4.6581
1.7307
27.9336
32.3414
15.2223
8.18214
18.4379
47.9228
-9.98421
44.7111
12.3428
20.0386
16.6711
40.6009
3.85867
17.9279
19.7708
-3.35727
-5.54617
1.71863
-15.507
-14.3743
-41.7589
-19.5397
-25.3277
-13.5094
17.6881
0.0751159
5.06554
31.5561
26.5225
1.40219
0.798049
1.12632
0.745095
1.10932
0.205284
1.5208
1.06493
15.9989
16.0807
16.1661
15.7932
9.98835
11.8144
13.9416
13.3687
28.2975
28.5483
28.0148
28.2611
28.1984
28.4723
27.9541
28.2081
41.4618
59.8649
-5.01446
43.3779
-6.36821
34.1816
-3.00646
50.4281
61.1208
43.9922