# vtk DataFile Version 3.0
Gravity inversion using rectangular prisms
ASCII
DATASET UNSTRUCTURED_GRID

POINTS	2677	double
100	100	100
100	100	300
100	100	500
100	100	700
100	100	900
100	300	100
100	300	300
100	300	500
100	300	700
100	300	900
100	500	100
100	500	300
100	500	500
100	500	700
100	500	900
100	700	100
100	700	300
100	700	500
100	700	700
100	700	900
100	900	100
100	900	300
100	900	500
100	900	700
100	900	900
100	1100	100
100	1100	300
100	1100	500
100	1100	700
100	1100	900
100	1300	100
100	1300	300
100	1300	500
100	1300	700
100	1300	900
100	1500	100
100	1500	300
100	1500	500
100	1500	700
100	1500	900
100	1700	100
100	1700	300
100	1700	500
100	1700	700
100	1700	900
100	1900	100
100	1900	300
100	1900	500
100	1900	700
100	1900	900
300	100	100
300	100	300
300	100	500
300	100	700
300	100	900
300	300	100
250	250	250
250	250	350
250	350	250
250	350	350
350	250	250
350	250	350
350	350	250
350	350	350
300	300	500
300	300	700
300	300	900
250	450	50
250	450	150
250	550	50
250	550	150
350	450	50
350	450	150
350	550	50
350	550	150
250	450	250
250	450	350
250	550	250
250	550	350
325	425	225
325	425	275
325	475	225
325	475	275
375	425	225
375	425	275
375	475	225
375	475	275
350	450	350
350	550	250
350	550	350
250	450	450
250	450	550
250	550	450
250	550	550
350	450	450
350	450	550
350	550	450
350	550	550
300	500	700
300	500	900
300	700	100
300	700	300
300	700	500
300	700	700
300	700	900
300	900	100
300	900	300
300	900	500
300	900	700
300	900	900
300	1100	100
300	1100	300
300	1100	500
300	1100	700
300	1100	900
300	1300	100
300	1300	300
300	1300	500
300	1300	700
300	1300	900
300	1500	100
300	1500	300
300	1500	500
300	1500	700
300	1500	900
300	1700	100
300	1700	300
300	1700	500
300	1700	700
300	1700	900
300	1900	100
300	1900	300
300	1900	500
300	1900	700
300	1900	900
500	100	100
500	100	300
500	100	500
500	100	700
500	100	900
500	300	100
500	300	300
500	300	500
500	300	700
500	300	900
450	450	50
450	450	150
450	550	50
450	550	150
550	450	50
550	450	150
550	550	50
550	550	150
450	450	250
450	450	350
450	550	250
450	550	350
550	450	250
550	450	350
525	525	225
525	525	275
525	575	225
525	575	275
575	525	225
575	525	275
575	575	225
575	575	275
550	550	350
500	500	500
500	500	700
500	500	900
450	650	50
450	650	150
450	750	50
450	750	150
550	650	50
550	650	150
550	750	50
550	750	150
450	650	250
450	650	350
450	750	250
450	750	350
525	625	225
525	625	275
525	675	225
525	675	275
575	625	225
575	625	275
575	675	225
575	675	275
550	650	350
525	725	225
525	725	275
525	775	225
525	775	275
575	725	225
575	725	275
575	775	225
575	775	275
550	750	350
450	650	450
450	650	550
450	750	450
450	750	550
550	650	450
550	650	550
550	750	450
550	750	550
500	700	700
500	700	900
450	850	50
450	850	150
450	950	50
450	950	150
550	850	50
550	850	150
550	950	50
550	950	150
450	850	250
450	850	350
450	950	250
450	950	350
550	850	250
550	850	350
550	950	250
550	950	350
500	900	500
500	900	700
500	900	900
500	1100	100
500	1100	300
500	1100	500
500	1100	700
500	1100	900
500	1300	100
450	1250	250
450	1250	350
450	1350	250
450	1350	350
550	1250	250
550	1250	350
550	1350	250
550	1350	350
500	1300	500
500	1300	700
500	1300	900
500	1500	100
500	1500	300
500	1500	500
500	1500	700
500	1500	900
500	1700	100
500	1700	300
500	1700	500
500	1700	700
500	1700	900
500	1900	100
500	1900	300
500	1900	500
500	1900	700
500	1900	900
700	100	100
700	100	300
700	100	500
700	100	700
700	100	900
700	300	100
700	300	300
700	300	500
700	300	700
700	300	900
650	450	50
650	450	150
650	550	50
625	525	125
625	525	175
625	575	125
625	575	175
675	525	125
675	525	175
675	575	125
675	575	175
750	450	50
750	450	150
750	550	50
750	550	150
650	450	250
650	450	350
625	525	225
625	525	275
625	575	225
625	575	275
675	525	225
675	525	275
675	575	225
675	575	275
625	525	325
625	525	375
625	575	325
625	575	375
675	525	325
675	525	375
675	575	325
675	575	375
750	450	250
750	450	350
725	525	225
725	525	275
725	575	225
725	575	275
775	525	225
775	525	275
775	575	225
775	575	275
750	550	350
650	450	450
650	450	550
650	550	450
650	550	550
750	450	450
750	450	550
750	550	450
750	550	550
700	500	700
700	500	900
625	625	25
625	625	75
625	675	25
625	675	75
675	625	25
675	625	75
675	675	25
675	675	75
625	625	125
625	625	175
625	675	125
625	675	175
675	625	125
675	625	175
675	675	125
675	675	175
625	725	25
625	725	75
625	775	25
625	775	75
675	725	25
675	725	75
675	775	25
675	775	75
625	725	125
625	725	175
625	775	125
625	775	175
675	725	125
675	725	175
675	775	125
675	775	175
750	650	50
725	625	125
725	625	175
725	675	125
725	675	175
775	625	125
775	625	175
775	675	125
775	675	175
750	750	50
725	725	125
725	725	175
725	775	125
725	775	175
775	725	125
775	725	175
775	775	125
775	775	175
650	650	250
650	650	350
650	750	250
650	750	350
725	625	225
725	625	275
725	675	225
725	675	275
775	625	225
775	625	275
775	675	225
775	675	275
750	650	350
725	725	225
725	725	275
725	775	225
725	775	275
775	725	225
775	725	275
775	775	225
775	775	275
750	750	350
650	650	450
650	650	550
650	750	450
650	750	550
750	650	450
750	650	550
750	750	450
750	750	550
700	700	700
700	700	900
650	850	50
625	825	125
625	825	175
625	875	125
625	875	175
675	825	125
675	825	175
675	875	125
675	875	175
650	950	50
650	950	150
750	850	50
750	850	150
750	950	50
750	950	150
650	850	250
650	850	350
650	950	250
650	950	350
725	825	225
725	825	275
725	875	225
725	875	275
775	825	225
775	825	275
775	875	225
775	875	275
750	850	350
750	950	250
750	950	350
650	850	450
650	850	550
650	950	450
650	950	550
750	850	450
750	850	550
750	950	450
750	950	550
700	900	700
700	900	900
700	1100	100
650	1050	250
650	1050	350
650	1150	250
650	1150	350
750	1050	250
750	1050	350
750	1150	250
750	1150	350
700	1100	500
700	1100	700
700	1100	900
650	1250	50
650	1250	150
650	1350	50
650	1350	150
750	1250	50
750	1250	150
750	1350	50
750	1350	150
625	1225	225
625	1225	275
625	1275	225
625	1275	275
675	1225	225
675	1225	275
675	1275	225
675	1275	275
650	1250	350
625	1325	225
625	1325	275
625	1375	225
625	1375	275
675	1325	225
675	1325	275
675	1375	225
675	1375	275
650	1350	350
725	1225	225
725	1225	275
725	1275	225
725	1275	275
775	1225	225
775	1225	275
775	1275	225
775	1275	275
750	1250	350
750	1350	250
750	1350	350
650	1250	450
650	1250	550
650	1350	450
650	1350	550
750	1250	450
750	1250	550
750	1350	450
750	1350	550
700	1300	700
700	1300	900
650	1450	50
650	1450	150
650	1550	50
650	1550	150
750	1450	50
750	1450	150
750	1550	50
750	1550	150
650	1450	250
650	1450	350
650	1550	250
650	1550	350
750	1450	250
750	1450	350
750	1550	250
750	1550	350
650	1450	450
650	1450	550
650	1550	450
650	1550	550
750	1450	450
750	1450	550
750	1550	450
750	1550	550
700	1500	700
700	1500	900
700	1700	100
700	1700	300
700	1700	500
700	1700	700
700	1700	900
700	1900	100
700	1900	300
700	1900	500
700	1900	700
700	1900	900
900	100	100
900	100	300
900	100	500
900	100	700
900	100	900
900	300	100
850	250	250
850	250	350
850	350	250
850	350	350
950	250	250
950	250	350
950	350	250
950	350	350
900	300	500
900	300	700
900	300	900
850	450	50
850	450	150
850	550	50
850	550	150
950	450	50
950	450	150
950	550	50
950	550	150
850	450	250
850	450	350
825	525	225
825	525	275
825	575	225
825	575	275
875	525	225
875	525	275
875	575	225
875	575	275
850	550	350
950	450	250
925	425	325
925	425	375
925	475	325
925	475	375
975	425	325
975	425	375
975	475	325
975	475	375
950	550	250
950	550	350
850	450	450
850	450	550
850	550	450
850	550	550
950	450	450
950	450	550
950	550	450
950	550	550
900	500	700
900	500	900
850	650	50
825	625	125
825	625	175
825	675	125
825	675	175
875	625	125
875	625	175
875	675	125
875	675	175
850	750	50
850	750	150
950	650	50
950	650	150
950	750	50
950	750	150
825	625	225
825	625	275
825	675	225
825	675	275
875	625	225
875	625	275
875	675	225
875	675	275
850	650	350
825	725	225
825	725	275
825	775	225
825	775	275
875	725	225
875	725	275
875	775	225
875	775	275
850	750	350
925	625	225
925	625	275
925	675	225
925	675	275
975	625	225
975	625	275
975	675	225
975	675	275
950	650	350
925	725	225
925	725	275
925	775	225
925	775	275
975	725	225
975	725	275
975	775	225
975	775	275
950	750	350
850	650	450
850	650	550
850	750	450
850	750	550
925	625	425
925	625	475
925	675	425
925	675	475
975	625	425
975	625	475
975	675	425
975	675	475
950	650	550
950	750	450
950	750	550
850	650	650
850	650	750
850	750	650
850	750	750
950	650	650
950	650	750
950	750	650
950	750	750
900	700	900
850	850	50
850	850	150
850	950	50
850	950	150
950	850	50
950	850	150
950	950	50
950	950	150
825	825	225
825	825	275
825	875	225
825	875	275
875	825	225
875	825	275
875	875	225
875	875	275
850	850	350
850	950	250
850	950	350
950	850	250
950	850	350
950	950	250
950	950	350
850	850	450
850	850	550
850	950	450
850	950	550
950	850	450
950	850	550
950	950	450
950	950	550
900	900	700
900	900	900
850	1050	50
850	1050	150
850	1150	50
850	1150	150
950	1050	50
950	1050	150
950	1150	50
950	1150	150
850	1050	250
850	1050	350
850	1150	250
850	1150	350
950	1050	250
950	1050	350
950	1150	250
950	1150	350
850	1050	450
850	1050	550
850	1150	450
850	1150	550
950	1050	450
950	1050	550
950	1150	450
950	1150	550
900	1100	700
900	1100	900
850	1250	50
825	1225	125
825	1225	175
825	1275	125
825	1275	175
875	1225	125
875	1225	175
875	1275	125
875	1275	175
850	1350	50
825	1325	125
825	1325	175
825	1375	125
825	1375	175
875	1325	125
875	1325	175
875	1375	125
875	1375	175
950	1250	50
950	1250	150
950	1350	50
925	1325	125
925	1325	175
925	1375	125
925	1375	175
975	1325	125
975	1325	175
975	1375	125
975	1375	175
850	1250	250
850	1250	350
825	1325	225
825	1325	275
825	1375	225
825	1375	275
875	1325	225
875	1325	275
875	1375	225
875	1375	275
825	1325	325
825	1325	375
825	1375	325
825	1375	375
875	1325	325
875	1325	375
875	1375	325
875	1375	375
925	1225	225
925	1225	275
925	1275	225
925	1275	275
975	1225	225
975	1225	275
975	1275	225
975	1275	275
925	1225	325
925	1225	375
925	1275	325
925	1275	375
975	1225	325
975	1225	375
975	1275	325
975	1275	375
925	1325	225
925	1325	275
925	1375	225
925	1375	275
975	1325	225
975	1325	275
975	1375	225
975	1375	275
925	1325	325
[...]
CELL_DATA	2677
SCALARS model double 1
LOOKUP_TABLE table0
1.28916
-14.445
34.258
30.666
36.5981
1.57332
-1.93048
20.0809
19.3998
24.5717
1.28676
1.66799
23.3212
21.3984
22.0503
1.67685
-6.81627
23.1925
25.9364
24.9778
0.536741
7.76009
30.1017
31.5343
27.5042
0.185565
0.100099
32.7343
35.7206
28.7577
0.246391
5.78492
27.4633
32.928
29.9863
0.961057
-4.41515
17.1596
26.9061
31.3749
0.480503
-0.0661867
14.3694
26.4575
35.6216
0.208989
-9.3888
20.902
34.6051
42.9483
0.934775
7.11774
-4.47947
11.8038
32.3215
2.38339
-11.5566
-8.0705
-33.2101
-9.40075
18.7322
0.982892
16.6745
3.9683
-37.1997
-14.1555
6.95859
5.50033
-12.6224
2.25826
-1.68935
-0.232985
23.0763
3.70288
18.9748
-3.56482
37.7257
14.3971
26.1838
110.184
85.4426
60.0746
58.1174
112.919
133.959
39.2369
91.0514
94.6524
5.2796
55.3592
-30.1182
-29.6171
-30.5637
-29.6439
-26.9954
-28.7221
-28.0164
-29.0781
-18.879
-5.73222
4.17648
17.6382
-20.764
-16.5586
-9.84895
1.35664
24.8916
-9.21905
-20.4763
-14.1854
0.481261
21.7726
-8.75051
-23.0022
-20.5549
1.22725
23.2844
-9.62614
-20.6272
-21.6127
1.07595
11.7014
-11.8039
-15.868
-12.5027
0.797041
3.77131
-8.83835
-2.01756
7.28814
0.0228343
4.55191
18.6304
27.5007
34.3528
1.48956
9.67676
2.48952
22.0675
37.0558
5.04232
-12.4416
-20.3971
-6.17838
6.3333
13.2858
-35.5518
22.7427
-31.0805
11.6551
41.3307
27.5409
-21.0052
75.7973
59.8887
39.8088
45.8785
70.8694
44.393
43.7211
96.5025
14.7549
66.4119
76.4052
108.803
47.8354
83.0562
38.2206
-0.068935
-10.978
-11.517
26.9209
-2.66781
16.2749
25.8481
43.8933
-18.3884
40.3712
-9.42198
12.8519
80.4903
45.3579
97.0269
-18.0849
77.2143
-51.7078
53.3318
27.0024
106.668
-3.57599
84.2925
137.675
-52.0522
40.8678
-27.984
37.0012
-13.1149
67.2256
-5.19224
56.77
144.559
34.6238
23.3237
41.9634
26.7127
26.8315
17.9604
31.6365
20.6502
-6.09556
-20.5105
8.67243
78.7206
7.93195
-2.8429
25.0129
4.23376
15.3098
36.6066
54.099
48.2373
44.9039
45.5394
44.067
48.3364
49.8059
49.032
-2.00934
-19.1219
-30.2266
6.0549
43.9997
-9.10017
-43.3818
-44.3099
2.90967
11.6133
33.988
-19.5742
25.5378
56.2859
36.8913
51.1234
33.0188
-13.2476
-50.1225
-52.7784
2.21194
39.0604
-11.6761
-39.7069
-43.6674
1.7092
14.9264
-10.15
-15.6686
-13.88
0.352951
-1.15951
22.0127
27.8329
28.8925
1.99717
-2.37184
16.4002
28.7409
39.4576
5.84754
7.03761
0.274433
0.883116
6.59131
9.27712
61.6865
48.0833
-119.615
8.61444
45.9046
24.4388
-42.5423
45.8776
57.075
55.2511
14.2297
56.9202
41.3049
53.585
72.3269
47.7968
178.941
245.535
141.318
228.18
185.608
220.145
173.427
215.148
162.086
159.091
147.294
149.601
157.106
153.896
147.859
148.007
71.5444
56.9954
198.52
221.661
188.817
220.491
193.549
200.831
189.592
205.844
131.469
33.5919
27.6599
34.3398
28.729
27.0609
24.0252
29.0093
25.6461
-5.54778
-14.8118
40.8439
87.6691
25.0208
65.991
65.387
96.9935
25.379
77.4988
137.026
-11.5863
144.296
-27.1447
107.433
26.5809
146.773
16.3805
42.3028
99.3163
63.4075
126.425
31.0612
99.1939
47.8768
114.613
157.072
-31.2908
167.871
17.7508
184.746
2.65932
189.04
27.0114
73.4407
76.5716
78.9933
104.479
81.9104
58.2075
87.6823
66.5866
82.1597
62.9843
129.658
92.0807
153.541
106.871
77.8412
85.8853
123.822
104.254
231.791
184.729
206.509
196.972
192.652
270.466
155.463
252.486
212.415
269.414
179.611
254.803
208.01
121.298
222.368
88.4124
191.418
149.927
227.644
125.958
204.164
221.882
113.805
55.1816
130.236
68.8406
131.595
74.8704
138.986
74.7857
0.980017
-28.0624
36.3779
131.429
23.6986
59.5675
-45.7115
146.58
25.14
76.3393
-48.6939
25.2619
34.9679
46.179
61.067
32.366
48.0708
138.297
155.213
76.733
83.1279
53.7501
142.127
26.6032
106.843
90.8809
153.153
54.2563
125.268
177.275
77.5305
92.2527
51.1463
42.3383
55.6687
45.3739
43.7237
38.2454
46.2743
40.2062
-6.76359
-39.9391
15.9248
33.8529
22.3983
8.56789
20.5214
37.734
21.5927
30.6765
20.4094
-14.1588
-37.3202
-54.3087
5.40398
29.422
6.20975
83.5074
27.9594
-12.7974
20.4684
-48.0566
1.32378
8.3466
100.638
60.764
-75.2046
-28.9293
-24.5676
-4.31403
56.7287
142.512
93.4497
106.708
74.4126
12.3905
25.3147
1.55288
18.3671
39.0738
-46.4173
-11.5937
-66.4916
-25.7489
-6.65168
7.41707
-72.2909
-32.6263
39.2908
38.2878
34.8238
32.7563
12.8121
20.7979
8.82558
17.0754
-3.11679
16.1924
-3.40963
-60.3803
-65.0572
3.29015
-3.00799
1.79674
-6.75604
11.7674
24.7747
4.03501
37.8523
65.2095
14.7135
81.8299
21.6375
51.4492
29.768
68.1002
30.3036
5.32637
-9.31662
6.85177
-11.1664
1.48328
-12.1208
3.88582
-12.0919
-55.6667
-59.7226
4.87381
2.5104
-16.7577
-24.0314
-27.7766
0.225119
32.31
34.9387
31.5343
25.2314
0.387153
7.75664
18.7937
28.9811
38.9204
1.62154
24.3032
22.7718
27.7282
25.9931
25.5797
24.5466
25.0511
28.1057
1.51442
-1.64038
3.27428
13.7
25.3223
31.5122
36.4139
2.76093
2.13528
11.4221
75.2363
59.1071
129.662
165.828
162.313
179.501
176.734
161.371
155.23
195.868
177.666
147.601
83.4007
135.122
139.103
143.233
145.757
149.932
154.547
153.843
157.931
131.82
131.79
7.07832
5.16523
9.33431
6.98055
8.62697
6.43381
10.2398
8.00901
-17.5886
-23.665
44.3258
72.0606
91.8304
44.4605
81.1399
111.954
94.1864
35.9678
67.1571
74.2037
93.6396
17.1221
73.1773
31.7728
18.5497
223.867
254.793
191.726
242.704
252.65
262.912
204.969
244.906
176.178
166.934
225.232
151.559
206.314
170.388
221.238
162.545
202.606
202.297
231.066
200.907
162.007
179.207
254.949
205.694
149.352
170.924
99.4519
121.279
153.462
127.789
149.04
111.792
148.72
126.048
147.26
130.881
147.983
97.9464
129.977
80.5469
116.693
114.332
115.062
113.608
114.973
112.959
112.999
111.985
68.7601
85.4178
41.7991
-30.3094
-33.1551
-29.1206
-32.1415
-29.7367
-32.6156
-28.9998
-31.8309
-44.3977
36.5208
71.2912
29.1205
45.1345
30.9837
53.7599
25.098
61.6376
116.444
155.949
76.6616
133.746
129.729
149.887
95.8142
135.494
155.618
55.0008
76.5367
127.139
105.097
12.4059
55.73
99.8699
52.4558
62.2747
29.3553
58.991
15.0652
33.2167
-0.238914
-31.7041
-59.3799
23.4505
34.866
18.7752
73.5738
22.9081
35.0447
29.4154
6.77821
16.7927
22.7873
39.7603
10.9116
-28.5615
13.7869
-14.3399
2.35755
18.6648
7.02235
4.53587
-3.65838
5.46805
-3.08886
-3.9216
-10.6393
-43.6233
-68.3419
30.9947
155.619
63.9158
-46.5424
-52.7939
130.107
12.4034
28.5955
-64.5508
34.4941
-72.2343
-62.9575
116.085
-13.1963
-21.0637
-42.8676
92.0898
-12.7452
39.2975
-11.1626
57.0344
18.7485
-6.26115
53.011
4.05138
-32.9241
-5.0703
22.5486
-5.22596
47.0174
16.4952
-64.1441
-57.1094
-18.7584
-42.2094
-36.818
-17.0796
-14.5817
-24.8505
-4.92654
36.0232
-18.0333
21.1878
22.7758
48.3492
8.10282
37.5376
15.9868
30.762
-0.187513
24.134
10.5321
26.4556
10.3478
31.2039
40.328
37.3015
43.9258
48.3067
34.0643
27.4441
44.4813
42.5298
330.02
359.445
343.598
358.084
350.681
386.07
358.864
384.912
388.097
401.516
386.096
406.512
406.447
412.042
407.876
420.841
0.432773
-16.021
50.266
40.5006
41.2444
38.8443
52.496
39.0372
48.4148
40.934
-16.8373
22.0447
6.04787
37.7048
21.5447
10.1971
-3.78875
27.9055
12.9983
-18.7615
398.754
376.561
410.183
388.865
404.278
381.12
417.931
394.933
6.37242
-22.1509
11.7489
-17.6848
0.059668
-27.346
4.84232
-22.9968
-40.5139
-56.79
-38.039
-54.7026
-49.9439
-63.5597
-47.5297
-61.7692
-71.4731
20.0407
142.379
50.4575
52.4686
37.2177
29.1476
41.974
-21.5082
35.5622
4.30286
62.6409
39.5061
33.7019
11.372
22.8029
17.218
28.4661
0.152578
18.8151
6.54371
28.6341
82.9961
-8.41345
-25.0768
6.81387
-5.41646
-5.12473
-19.61
19.1646
1.17226
-21.1923
9.69838
-17.1807
0.48865
-0.543334
26.7759
-1.62679
17.5309
51.9999
21.0268
351.782
354.891
367.281
356.832
365.308
375.692
372.236
363.763
376.251
398.259
359.244
378.016
397.53
414.545
377.367
394.538
73.6489
33.4412
115.534
58.3002
50.4485
9.41029
74.5651
19.7212
5.55025
13.0083
-5.49548
-11.6727
5.14573
18.9152
-13.504
-4.65282
30.4888
36.1482
20.2544
29.2701
40.8218
40.7532
33.0549
36.7421
-14.0148
4.9862
-13.1147
409.541
393.102
390.995
381.398
419.75
397.174
403.75
389.155
17.4404
-4.1758
18.5624
-2.95402
10.07
-10.8854
12.7193
-8.80939
24.4416
26.6509
1.69025
10.0322
27.3095
25.7932
7.32685
11.2456
-20.1207
-58.915
-65.3243
-58.5047
-65.6708
-61.5193
-66.6032
-60.7458
-66.6174
-64.817
7.52603
8.81245
9.00364
-34.1493
7.17166
48.1287
13.8987
29.2604
11.1985
-3.62109
-15.2509
-7.47967
-18.5719
-7.72365
-18.0042
-11.2845
-20.3187
-31.4854
-35.3805
2.43231
11.2264
38.3402
32.4258
20.6254
-0.0924862
8.8307
18.6978
28.4787
38.1907
0.388173
18.704
-8.41379
-8.39228
-1.58095
0.83667
9.9947
4.42016
5.86815
1.29602
-3.40805
2.86609
2.53638
17.1269
22.306
25.9475
22.5026
22.1395
28.2805
19.7063
25.3158
-25.2517
-26.1309
-24.847
-25.6313
-24.9279
-25.9429
-24.8286
-25.5598
-38.1342
-35.5625
11.2466
49.6649
24.7767
-9.33345
16.9985
-28.6579
-11.0205
-60.7276
-31.2348
-70.7113
-34.4075
-51.89
-37.5734
21.0433
-29.1041
-15.9519
57.0482
18.3862
-28.1225
-23.2469
25.6681
-3.15818
163.892
92.0526
51.8475
56.5074
115.87
71.3201
19.7168
34.2151
45.6663
42.1547
61.9318
60.9562
64.3119
47.9406
59.4665
65.3499
62.4053
33.1342
35.1629
31.8127
33.2949
29.4488
31.9014
28.2891
29.9653
-80.0244
-94.0052
-135.481
-122.449
-138.334
-113.431
-165.387
-138.734
-90.3761
-90.5191
-93.0984
-92.4391
-93.9892
-92.4598
-97.1568
-95.1197
-161.121
-133.102
-172.647
-149.138
-170.68
-142.207
-179.919
-152.992
-116.729
-56.8679
-58.9449
-58.0735
-59.1821
-54.9623
-56.7692
-57.6852
-58.0314
-67.3356
-64.9156
26.0751
24.8371
21.5302
19.9184
21.2014
20.5619
22.8993
20.0835
50.8517
25.9683
29.1814
25.4682
-54.0786
-59.1474
-62.2657
-60.5915
-64.7572
-65.0664
-67.6562
-64.4094
-82.9104
75.8222
-12.2314
-58.5965
-59.361
-57.194
-58.7736
-58.8032
-59.0759
-57.3826
-59.0451
-80.1028
-82.8462
26.9504
36.0217
21.5086
14.5182
12.313
106.141
16.9988
44.5461
13.8069
-3.33127
-29.8675
-10.3346
-31.7637
-20.9885
-55.6533
-13.1131
-42.7891
-70.7699
-84.9581
39.4749
53.8137
43.9927
-11.6991
9.60127
3.45552
1.5209
52.6092
35.85
21.1142
20.5515
30.01
80.7393
34.9968
43.0486
71.682
37.7999
28.2642
25.0163
84.5401
43.873
37.4267
36.9691
46.6264
40.7551
51.2386
93.4871
76.3868
90.1184
84.4424
34.5927
20.8956
50.9699
39.6005
44.327
25.6024
64.0311
45.4653
373.414
406.362
367.255
401.531
413.496
433.632
390.189
423.227
417.068
415.425
419.301
424.113
432.845
423.185
432.617
430.189
127.933
88.834
127.801
107.8
140.542
95.2723
140.893
119.624
56.8246
28.4356
85.9749
57.5637
54.9822
25.5463
90.9865
57.1535
445.312
457.495
415.097
441.905
454.445
470.378
427.617
449.822
451.742
435.63
443.652
438.535
460.997
438.52
450.472
443.254
7.91157
-8.18957
27.9012
11.2082
8.00679
-10.6267
29.3023
9.46911
-20.1558
406.661
382.046
418.013
396.607
408.962
380.3
419.846
396.307
-0.704043
-29.6572
3.89005
-24.3873
-2.84522
-33.1359
1.53326
-27.5734
19.5214
7.17804
23.7456
10.7968
15.5915
2.5549
18.4514
5.18784
-34.6981
404.997
378.685
414.761
390.506
408.639
380.187
415.622
391.136
-9.42888
-25.9326
-7.0016
-24.5358
-15.5806
-31.2143
-12.8972
-29.5016
-53.0023
-73.0545
-49.287
-67.3471
-59.7693
-80.1659
-53.3073
-71.6976
-77.6859
44.8098
19.2787
4.14626
21.9734
15.1667
34.8011
22.0375
45.6669
38.2442
24.3324
-21.3351
53.4091
47.9735
30.2418
59.6544
41.4828
50.0072
29.3224
38.474
32.6718
40.5797
-1.85604
64.2536
-9.64071
66.6572
-41.3539
55.9135
-5.51151
79.9807
361.969
386.224
363.303
361.849
369.122
402.036
352.776
370.082
406.946
416.612
384.259
398.335
418.296
421.292
394.292
402.822
22.9276
-11.7505
27.0176
-21.3341
3.0616
-19.3371
-5.17257
-47.7669
6.25261
23.5474
-20.0496
1.00461
13.6462
29.7333
-17.9218
8.39758
383.888
418.012
352.694
384.649
395.323
426.609
362.181
397.142
429.085
428.219
405.305
409.268
433.586
429.169
412.542
412.163
-2.93286
-7.19332
-7.92518
-48.1147
4.52229
14.3966
17.9244
-21.449
26.2125
36.9558
-4.77993
18.1665
38.9894
43.0076
14.1833
28.0015
416.269
392.294
401.819
382.804
416.054
391.014
403.271
382.776
4.13718
-22.999
10.0517
-16.3
0.806038
-26.241
6.60374
-19.6076
27.628
22.7432
9.38387
4.98208
30.3939
24.3908
12.6561
6.56163
-23.9595
418.711
396.795
404.661
386.398
419.325
395.133
406.087
386.195
1.66993
-26.2911
6.62163
-19.7527
-1.35757
-30.1409
3.11904
-23.6412
33.3112
26.1792
16.6953
9.30704
35.6299
26.3606
20.9759
12.6968
-27.3141
-49.9094
-63.6785
-41.2881
-55.2341
-53.8899
-66.794
-45.0373
-58.4074
-65.2133
16.896
19.9755
3.54457
35.4494
16.8804
38.3233
9.71108
-28.4079
39.2574
16.2559
16.1725
9.45265
60.4908
22.2414
15.4044
17.3558
-6.38239
-19.3941
-3.98373
-12.0634
-6.17305
-19.0918
-1.1394
-9.60367
-37.7169
-37.1533
2.30069
21.2842
39.3426
29.1
16.2525
0.229508
9.06505
20.5354
29.4298
38.6825
1.56578
4.34044
-11.7859
0.697613
-5.77991
12.6764
-8.17802
13.7143
1.08141
-22.2023
-23.5498
-20.7694
-22.3075
-21.783
-23.5214
-19.8462
-21.9222
-15.5576
-5.52612
0.669394
-38.0675
4.41063
-50.7841
-59.8101
-75.5272
-59.6511
-45.5856
-63.7851
-54.1953
-66.2856
-8.44137
-12.5269
7.16473
-63.5898
-66.3108
-78.4783
-78.3595
-140.081
-73.6834
-161.482
-96.5549
57.5917
80.2942
51.0127
73.0882
65.8327
87.632
54.3747
77.6375
173.075
162.18
150.348
151.193
202.599
186.603
179.701
176.317
-134.768
-74.1512
-144.319
-93.431
-102.449
-45.0325
-126.032
-74.8511
-61.1292
-58.9789
-64.67
-61.8795
-58.1403
-56.0444
-63.754
-60.3895
37.4606
61.026
56.3513
53.3694
52.6197
72.9632
64.6877
63.2397
59.945
-108.258
-94.3649
-115.89
-103.177
-99.0924
-84.6457
-114.064
-98.4357
-110.739
-45.7353
-50.8583
-45.5788
-49.5729
-41.9425
-48.0202
-42.1752
-46.9111
-64.7056
-59.4367
-63.6872
-52.8637
-61.0671
-53.5768
-59.7477
-58.2068
-45.1028
38.7917
-36.5809
19.5001
-19.433
44.8745
-5.30243
37.0744
-24.8369
-109.238
-227.99
-108.495
-218.417
-86.5385
-196.982
-92.3773
-199.84
41.7781
8.86864
20.0503
45.7145
19.5206
-13.1984
43.6667
25.7183
-123.492
-234.076
-161.631
-254.392
-99.0161
-218.549
-131.56
-230.745
29.7082
-34.4195
25.747
-37.0808
-5.01372
-88.4249
11.8193
-62.2639
-112.953
-203.498
-110.33
-204.866
52.8417
-267.743
-99.8232
-248.476
54.4123
0.032815
24.1879
-24.1311
61.9701
21.6695
43.2708
4.71926
-103.201
-246.05
-159.15
-262.383
-112.672
-260.368
-156.92
-264.861
-219.323
-164.882
-232.936
-200.531
-231.618
-192.197
-274.088
-237.383
-128.065
-130.298
-132.144
-132.547
-123.698
-127.1
-130.062
-130.965
-99.5091
-77.8413
20.9147
2.49453
-2.45451
-15.389
-1.90535
1.70167
-3.38441
-5.21004
2.5495
21.74
25.4952
12.821
1.10085
-1.70906
4.55149
7.62657
-10.4716
-8.46541
-1.06898
3.58236
20.5051
21.8157
-204.643
-185.98
-173.644
-162.074
-184.394
-175.455
-157.137
-154.31
-174.581
17.1251
15.8297
48.2811
39.6724
25.7772
19.432
47.5865
37.1611
-65.7085
-247.53
-242.521
-231.307
-229.715
-248.122
-240.003
-239.74
-234.094
-220.318
-217.986
-218.828
-216.997
-220.244
-218.096
-218.478
-217.045
-84.685
-88.673
-72.4137
-78.1109
-104.518
-101.762
-99.7479
-96.9513
-118.256
-118.072
-118.473
-117.463
-119.324
-118.157
-118.703
-119.452
-121.111
-108.387
-92.6559
25.0032
55.0305
-11.0378
44.1127
9.89977
-16.7915
-44.2475
37.1302
5.74635
-43.6027
-74.1859
-15.0052
-47.8565
-58.1667
-83.2036
-14.8165
-48.6862
-85.6196
-87.8458
31.5024
53.4812
40.5495
22.5973
70.7319
45.4113
43.4639
15.3726
41.3589
45.8868
42.748
30.146
62.7484
40.9894
19.7608
22.3039
41.5681
36.8573
23.6561
9.24008
27.9942
22.2837
101.864
81.34
95.5176
79.364
63.8177
56.3338
57.4887
53.9502
54.9251
26.3984
88.7597
56.3908
50.6879
22.3879
85.6311
52.8282
444.237
467.359
424.777
446.874
423.903
457.804
412.14
437.17
457.995
434.611
448.019
438.83
451.692
428.485
441.314
432.825
32.9127
44.1264
31.5775
42.3619
-3.3263
20.4375
6.87541
24.3945
59.4397
26.3122
83.0784
51.0713
71.0679
29.8626
74.9732
43.4717
401.799
445.024
397.295
426.434
383.712
427.371
385.801
418.309
437.466
417.588
428.087
419.315
422.587
405.025
415.688
406.701
-0.586959
-13.39
2.08646
-10.7805
-12.7719
-24.2067
-9.96592
-21.363
-50.8903
406.315
378.033
409.505
386.381
403.131
374.146
405.685
383.134
-23.5041
-38.1031
-20.0616
-35.631
-32.0287
-45.1998
-27.4394
-41.6689
-26.0858
-35.9934
-22.3179
-32.2544
-40.8095
-49.9374
-34.7537
-44.0983
-60.2617
395.89
366.731
399.368
377.845
386.128
358.812
389.749
370.41
-42.2092
-53.7934
-35.9207
-48.7592
-50.9083
-61.0587
-42.5675
-54.1576
-68.0856
-70.2853
-67.4908
-69.8189
-69.9209
-71.0888
-68.8169
-70.2376
-75.3475
43.7333
55.9526
26.2745
1.47665
28.1408
48.8257
23.8391
-43.757
22.3703
25.1403
35.5289
39.0516
46.4768
19.7809
-36.6891
27.5305
42.9047
18.1036
32.4412
31.871
15.2378
61.7072
397.293
426.442
370.725
402.792
393.226
420.958
372.433
403.807
431.674
425.66
414.87
411.83
425.997
419.876
413.62
408.696
27.154
32.0777
48.1394
15.6012
42.3008
42.6979
78.293
37.7114
47.8013
47.3193
31.2259
35.5093
52.1932
47.5923
41.3852
39.0091
390.472
414.829
375.919
405.855
390.258
413.96
385.391
410.912
420.17
414.221
411.447
404.666
415.396
404.413
412.19
400.083
48.7639
50.2657
85.8022
45.6624
56.0406
57.7662
78.2912
48.4044
54.7051
44.7482
45.3747
39.1222
58.2372
43.1984
47.7676
39.9532
415.893
390.204
403.906
382.121
409.921
383.595
398.971
376.088
-3.58828
-33.8506
0.998401
-26.1577
-9.22719
-39.1057
-4.786
-31.4605
35.8497
22.4209
24.7842
14.4518
32.0808
16.7272
25.2898
12.7281
-29.4835
396.192
371.67
387.676
363.505
383.984
361.494
377.33
354.462
-14.642
-44.2918
-9.55544
-35.518
-20.5179
-47.3159
-15.0549
-38.4744
25.0822
5.88959
24.4163
7.29855
18.5516
-1.0279
22.6986
2.6683
-26.7641
-54.6214
-66.8461
-46.1719
-59.0211
-55.2007
-67.5152
-46.6591
-59.8099
-60.9664
8.24218
86.3396
23.5228
58.7088
22.1529
57.0808
15.4612
-27.4624
2.7341
-5.22194
-18.4614
-0.426723
-7.00371
-3.96584
-17.3154
-3.79857
-5.55647
-40.3368
-33.8833
1.13595
31.9693
35.6499
22.8682
15.7742
0.736032
14.7418
22.1656
30.5605
40.638
3.16383
-13.3944
-29.3653
-19.6802
-5.46291
-1.96072
-10.4889
0.804951
-19.7735
-1.72113
8.38879
0.568875
-35.1859
-16.8476
-37.0574
-49.2986
-44.8294
67.7232
-7.08684
-4.4619
-20.5615
-83.6397
-64.8705
-44.2046
11.0521
-124.877
-155.693
-163.131
-167.515
-88.7865
-149.735
-216.069
-175.818
11.6795
-141.911
-117.455
-95.0164
-88.4065
-244.849
-136.995
-203.519
-108.056
14.55
-105.354
-150.298
-160.275
-152.98
-167.9
-163.657
-26.7857
-109.828
7.33242
-13.0014
-196.696
-84.4398
-217.09
-135.925
-169.942
-29.9307
-190.828
-91.305
-141.729
-236.271
-194.012
-230.173
-207.865
-204.151
-153.521
-194.292
-173.012
-183.502
4.07534
-17.1027
-18.8339
-48.9061
-107.974
-113.947
-117.88
-120.16
-101.438
-111.482
-116.394
-120.566
-93.7364
-69.2201
4.33432
-6.2306
14.6075
1.97986
-4.23327
55.0198
0.34352
47.6289
-158.632
-142.252
-150.083
-140.378
-124.797
-116.594
-119.112
-123.771
-85.8542
-64.4176
-64.4384
-3.67022
-21.2896
8.86045
-24.7183
-84.6111
-85.3993
-88.7911
-89.7181
-87.6408
-88.1131
-95.1824
-93.879
-85.3924
-73.181
17.4313
2.97254
19.9458
-5.45974
4.00591
23.9508
6.40078
43.5107
33.2624
-22.843
81.7663
26.0202
143.124
132.059
133.404
128.224
153.91
133.314
140.321
129.114
41.4174
118.386
59.6894
-33.345
-40.875
-25.5495
-38.2143
-25.3398
-39.3478
-23.5936
-39.5413
-61.708
-63.5524
27.6347
-20.4047
-22.1026
21.8827
-11.2109
-23.0245
40.6883
-66.4422
-3.47134
33.5841
4.30254
-15.2141
7.40799
0.697224
-19.319
-33.5559
-1.13178
-11.5877
6.84635
42.865
10.5316
-126.924
-6.51402
-26.6459
21.54
50.4183
55.63
149.291
107.968
137.909
112.085
65.5111
75.8104
90.8686
70.7336
62.2403
45.9526
4.67596
-1.86263
12.5333
5.36515
6.7395
-10.1455
18.447
1.68412
380.329
414.426
381.783
415.816
386.902
393.622
386.104
409.987
400.098
388.201
398.551
389.249
374.296
365.471
380.971
370.666
93.9215
28.0023
93.1804
25.452
83.166
45.2091
123.889
18.1046
117.993
36.9925
46.8054
20.7298
53.2644
32.8659
50.4488
17.4886
56.6886
31.8766
-7.63503
-36.8255
7.04787
-16.9104
-16.5068
-41.7787
-3.36342
-22.5629
-55.7357
374.43
344.735
378.126
355.706
356.131
330.59
362.176
343.133
-28.9982
-61.1583
-23.004
-50.9472
-31.9507
-61.4929
-23.6144
-49.0959
-15.2027
-58.4653
-30.4984
-42.3206
-13.8189
-26.2418
-36.5957
-47.144
-17.5307
-28.9594
-44.3495
-56.3598
-66.5771
-53.5068
-64.6134
-59.0703
-68.7172
-55.5203
-65.9945
-53.3701
25.9698
20.8587
14.3824
49.9826
30.4993
-5.14545
17.5846
9.40774
45.8473
10.709
67.2983
5.42155
72.3286
0.839057
19.0313
390.091
418.074
392.285
416.338
387.996
415.996
388.692
411.654
411.724
393.113
413.638
393.698
396.138
372.454
401.98
375.965