# vtk DataFile Version 3.0
Gravity inversion using rectangular prisms
ASCII
DATASET UNSTRUCTURED_GRID

POINTS	3868	double
0	0	0
0	0	200
0	0	400
0	0	600
0	0	800
0	0	1000
0	200	0
0	200	200
0	200	400
0	200	600
0	200	800
0	200	1000
0	400	0
0	400	200
0	400	400
0	400	600
0	400	800
0	400	1000
0	600	0
0	600	200
0	600	400
0	600	600
0	600	800
0	600	1000
0	800	0
0	800	200
0	800	400
0	800	600
0	800	800
0	800	1000
0	1000	0
0	1000	200
0	1000	400
0	1000	600
0	1000	800
0	1000	1000
0	1200	0
0	1200	200
0	1200	400
0	1200	600
0	1200	800
0	1200	1000
0	1400	0
0	1400	200
0	1400	400
0	1400	600
0	1400	800
0	1400	1000
0	1600	0
0	1600	200
0	1600	400
0	1600	600
0	1600	800
0	1600	1000
0	1800	0
0	1800	200
0	1800	400
0	1800	600
0	1800	800
0	1800	1000
0	2000	0
0	2000	200
0	2000	400
0	2000	600
0	2000	800
0	2000	1000
200	0	0
200	0	200
200	0	400
200	0	600
200	0	800
200	0	1000
200	200	0
200	200	200
200	200	400
200	200	600
200	200	800
200	200	1000
200	400	0
200	400	200
200	400	400
200	400	600
200	400	800
200	400	1000
200	600	0
200	600	200
200	600	300
200	600	400
200	600	600
200	600	800
200	600	1000
200	700	200
200	700	300
200	700	400
200	800	0
200	800	200
200	800	300
200	800	400
200	800	600
200	800	800
200	800	1000
200	1000	0
200	1000	200
200	1000	400
200	1000	600
200	1000	800
200	1000	1000
200	1200	0
200	1200	200
200	1200	400
200	1200	600
200	1200	800
200	1200	1000
200	1400	0
200	1400	200
200	1400	400
200	1400	600
200	1400	800
200	1400	1000
200	1600	0
200	1600	200
200	1600	400
200	1600	600
200	1600	800
200	1600	1000
200	1800	0
200	1800	200
200	1800	400
200	1800	600
200	1800	800
200	1800	1000
200	2000	0
200	2000	200
200	2000	400
200	2000	600
200	2000	800
200	2000	1000
300	600	200
300	600	300
300	600	400
300	700	200
300	700	300
300	700	400
300	800	200
300	800	300
300	800	400
400	0	0
400	0	200
400	0	400
400	0	600
400	0	800
400	0	1000
400	200	0
400	200	200
400	200	400
400	200	600
400	200	800
400	200	1000
400	400	0
400	400	100
400	400	200
400	400	300
400	400	400
400	400	500
400	400	600
400	400	800
400	400	1000
400	500	0
400	500	100
400	500	200
400	500	300
400	500	400
400	500	500
400	500	600
400	600	0
400	600	100
400	600	200
400	600	300
400	600	400
400	600	500
400	600	600
400	600	800
400	600	1000
400	700	0
400	700	100
400	700	200
400	700	250
400	700	300
400	700	400
400	700	500
400	700	600
400	750	200
400	750	250
400	750	300
400	800	0
400	800	100
400	800	200
400	800	250
400	800	300
400	800	400
400	800	500
400	800	600
400	800	800
400	800	1000
400	900	200
400	900	300
400	900	400
400	900	500
400	900	600
400	1000	0
400	1000	200
400	1000	300
400	1000	400
400	1000	500
400	1000	600
400	1000	800
400	1000	1000
400	1200	0
400	1200	200
400	1200	400
400	1200	600
400	1200	800
400	1200	1000
400	1400	0
400	1400	200
400	1400	400
400	1400	600
400	1400	800
400	1400	1000
400	1600	0
400	1600	200
400	1600	400
400	1600	600
400	1600	800
400	1600	1000
400	1800	0
400	1800	200
400	1800	400
400	1800	600
400	1800	800
400	1800	1000
400	2000	0
400	2000	200
400	2000	400
400	2000	600
400	2000	800
400	2000	1000
450	700	200
450	700	250
450	700	300
450	750	200
450	750	250
450	750	300
450	800	200
450	800	250
450	800	300
500	400	0
500	400	100
500	400	200
500	400	300
500	400	400
500	400	500
500	400	600
500	500	0
500	500	100
500	500	200
500	500	250
500	500	300
500	500	400
500	500	500
500	500	600
500	550	200
500	550	250
500	550	300
500	600	0
500	600	100
500	600	200
500	600	250
500	600	300
500	600	400
500	600	500
500	600	600
500	650	200
500	650	250
500	650	300
500	700	0
500	700	100
500	700	200
500	700	250
500	700	300
500	700	350
500	700	400
500	700	500
500	700	600
500	750	200
500	750	250
500	750	300
500	750	350
500	750	400
500	800	0
500	800	100
500	800	200
500	800	250
500	800	300
500	800	350
500	800	400
500	800	500
500	800	600
500	900	200
500	900	300
500	900	400
500	900	500
500	900	600
500	1000	200
500	1000	300
500	1000	400
500	1000	500
500	1000	600
550	500	200
550	500	250
550	500	300
550	550	200
550	550	250
550	550	300
550	600	200
550	600	250
550	600	300
550	650	200
550	650	250
550	650	300
550	700	200
550	700	250
550	700	300
550	700	350
550	700	400
550	750	200
550	750	250
550	750	300
550	750	350
550	750	400
550	800	200
550	800	250
550	800	300
550	800	350
550	800	400
600	0	0
600	0	200
600	0	300
600	0	400
600	0	600
600	0	800
600	0	1000
600	100	200
600	100	300
600	100	400
600	200	0
600	200	200
600	200	300
600	200	400
600	200	500
600	200	600
600	200	800
600	200	1000
600	300	200
600	300	300
600	300	400
600	300	500
600	300	600
600	400	0
600	400	100
600	400	200
600	400	300
600	400	400
600	400	500
600	400	600
600	400	700
600	400	800
600	400	1000
600	500	0
600	500	100
600	500	150
600	500	200
600	500	250
600	500	300
600	500	400
600	500	500
600	500	600
600	500	700
600	500	800
600	550	100
600	550	150
600	550	200
600	550	250
600	550	300
600	600	0
600	600	100
600	600	150
600	600	200
600	600	250
600	600	300
600	600	400
600	600	500
600	600	600
600	600	700
600	600	800
600	600	1000
600	650	100
600	650	150
600	650	200
600	650	250
600	650	300
600	700	0
600	700	100
600	700	150
600	700	200
600	700	250
600	700	300
600	700	350
600	700	400
600	700	500
600	700	600
600	700	700
600	700	800
600	750	100
600	750	150
600	750	200
600	750	250
600	750	300
600	750	350
600	750	400
600	800	0
600	800	100
600	800	150
600	800	200
600	800	250
600	800	300
600	800	350
600	800	400
600	800	500
600	800	600
600	800	700
600	800	800
600	800	1000
600	850	200
600	850	250
600	850	300
600	850	350
600	850	400
600	900	0
600	900	100
600	900	200
600	900	250
600	900	300
600	900	350
600	900	400
600	900	500
600	900	600
600	900	700
600	900	800
600	950	200
600	950	250
600	950	300
600	1000	0
600	1000	100
600	1000	200
600	1000	250
600	1000	300
600	1000	400
600	1000	500
600	1000	600
600	1000	700
600	1000	800
600	1000	1000
600	1100	200
600	1100	300
600	1100	400
600	1200	0
600	1200	200
600	1200	300
600	1200	400
600	1200	500
600	1200	600
600	1200	800
600	1200	1000
600	1300	200
600	1300	300
600	1300	400
600	1300	500
600	1300	600
600	1400	0
600	1400	200
600	1400	300
600	1400	400
600	1400	500
600	1400	600
600	1400	800
600	1400	1000
600	1500	200
600	1500	300
600	1500	400
600	1500	500
600	1500	600
600	1600	0
600	1600	200
600	1600	300
600	1600	400
600	1600	500
600	1600	600
600	1600	800
600	1600	1000
600	1800	0
600	1800	200
600	1800	400
600	1800	600
600	1800	800
600	1800	1000
600	2000	0
600	2000	200
600	2000	400
600	2000	600
600	2000	800
600	2000	1000
650	500	100
650	500	150
650	500	200
650	550	100
650	550	150
650	550	200
650	600	100
650	600	150
650	600	200
650	650	100
650	650	150
650	650	200
650	700	100
650	700	150
650	700	200
650	700	250
650	700	300
650	750	100
650	750	150
650	750	200
650	750	250
650	750	300
650	800	100
650	800	150
650	800	200
650	800	250
650	800	300
650	800	350
650	800	400
650	850	200
650	850	250
650	850	300
650	850	350
650	850	400
650	900	200
650	900	250
650	900	300
650	900	350
650	900	400
650	950	200
650	950	250
650	950	300
650	1000	200
650	1000	250
650	1000	300
700	0	200
700	0	300
700	0	400
700	100	200
700	100	300
700	100	400
700	200	200
700	200	300
700	200	350
700	200	400
700	200	500
700	200	600
700	250	300
700	250	350
700	250	400
700	300	200
700	300	300
700	300	350
700	300	400
700	300	450
700	300	500
700	300	600
700	350	300
700	350	350
700	350	400
700	350	450
700	350	500
700	400	0
700	400	100
700	400	200
700	400	300
700	400	350
700	400	400
700	400	450
700	400	500
700	400	550
700	400	600
700	400	700
700	400	800
700	450	300
700	450	350
700	450	400
700	450	450
700	450	500
700	450	550
700	450	600
700	500	0
700	500	100
700	500	150
700	500	200
700	500	300
700	500	350
700	500	400
700	500	450
700	500	500
700	500	550
700	500	600
700	500	700
700	500	800
700	550	100
700	550	150
700	550	200
700	550	500
700	550	550
700	550	600
700	600	0
700	600	100
700	600	150
700	600	200
700	600	300
700	600	400
700	600	500
700	600	550
700	600	600
700	600	700
700	600	800
700	650	100
700	650	150
700	650	200
700	700	0
700	700	100
700	700	150
700	700	200
700	700	250
700	700	300
700	700	400
700	700	500
700	700	600
700	700	700
700	700	800
700	750	100
700	750	150
700	750	200
700	750	250
700	750	300
700	800	0
700	800	100
700	800	150
700	800	200
700	800	250
700	800	300
700	800	350
700	800	400
700	800	500
700	800	600
700	800	700
700	800	800
700	850	200
700	850	250
700	850	300
700	850	350
700	850	400
700	900	0
700	900	100
700	900	200
700	900	250
700	900	300
700	900	350
700	900	400
700	900	500
700	900	600
700	900	700
700	900	800
700	950	200
700	950	250
700	950	300
700	1000	0
700	1000	100
700	1000	200
700	1000	250
700	1000	300
700	1000	400
700	1000	500
700	1000	600
700	1000	700
700	1000	800
700	1100	200
700	1100	300
700	1100	400
700	1200	200
700	1200	300
700	1200	400
700	1200	500
700	1200	600
700	1300	200
700	1300	300
700	1300	400
700	1300	500
700	1300	600
700	1400	200
700	1400	300
700	1400	400
700	1400	500
700	1400	600
700	1500	200
700	1500	300
700	1500	400
700	1500	500
700	1500	600
700	1600	200
700	1600	300
700	1600	400
700	1600	500
700	1600	600
750	200	300
750	200	350
750	200	400
750	250	300
750	250	350
750	250	400
750	300	300
750	300	350
750	300	400
750	300	450
750	300	500
750	350	300
750	350	350
750	350	400
750	350	450
750	350	500
750	400	300
750	400	350
750	400	400
750	400	450
750	400	500
750	400	550
750	400	600
750	450	300
750	450	350
750	450	400
750	450	450
750	450	500
750	450	550
750	450	600
750	500	300
750	500	350
750	500	400
750	500	450
750	500	500
750	500	550
750	500	600
750	550	500
750	550	550
750	550	600
750	600	500
750	600	550
750	600	600
750	700	100
750	700	150
750	700	200
750	700	250
750	700	300
750	750	100
750	750	150
750	750	200
750	750	250
750	750	300
750	800	100
750	800	150
750	800	200
750	800	250
750	800	300
750	850	200
750	850	250
750	850	300
750	900	200
750	900	250
750	900	300
750	950	200
750	950	250
750	950	300
750	1000	200
750	1000	250
750	1000	300
800	0	0
800	0	200
800	0	300
800	0	400
800	0	600
800	0	800
800	0	1000
800	100	200
800	100	300
800	100	400
800	200	0
800	200	200
800	200	300
800	200	350
800	200	400
800	200	500
800	200	600
800	200	800
800	200	1000
800	250	300
800	250	350
800	250	400
800	300	200
800	300	300
800	300	350
800	300	400
800	300	450
[...]
CELL_DATA	2544
SCALARS model double 1
LOOKUP_TABLE table0
-0.146241
6.20734
15.4042
-2.03172
-1.72195
0.341923
-1.70287
7.86604
-0.119142
-2.91607
-0.0613152
9.12766
13.4593
6.13554
-1.26621
0.271311
4.73615
11.7695
12.1647
3.8328
0.63403
3.20503
7.79552
12.954
8.04174
-0.28248
4.13973
13.1222
13.0962
11.6075
-0.136434
6.78772
16.7239
15.654
13.225
0.878495
-11.615
9.93234
17.0997
14.3022
0.05538
3.67018
11.5843
18.8734
16.7222
0.349083
-9.24354
5.92807
19.5179
21.7424
-0.170596
4.23467
-17.5015
1.3741
17.8829
0.528413
3.10203
-17.0699
-5.6452
1.63627
1.86263
-2.4929
-4.97012
-2.65288
-5.97856
2.24231
-28.6473
-8.83946
25.0234
14.2663
13.4579
13.0219
34.2817
23.5181
3.12642
1.84344
-3.48369
3.01092
1.88167
-2.44534
-1.46817
-4.31096
1.71128
11.9019
-3.66438
-6.39595
-10.4547
0.632149
6.89277
-2.41866
-7.60356
-11.2703
0.785465
7.46779
-1.42437
-3.14039
-5.46827
0.784804
-3.42622
-1.44521
4.33136
3.86904
0.134608
-2.01312
6.25058
13.094
14.0378
-0.981168
8.70293
2.90455
19.9771
29.8893
0.332783
3.07433
-2.13286
-0.639325
2.99316
-1.27139
10.6742
1.54885
21.0483
0.318041
25.3579
12.9942
40.6313
31.5442
28.6591
31.5434
40.7457
43.0613
35.2157
34.9203
54.9263
50.2916
65.0293
53.3127
66.7295
61.2424
94.8413
64.4837
30.2003
26.0077
37.1788
30.8614
33.2589
26.9654
48.3429
36.0498
-0.107384
-12.6303
4.47541
22.8234
12.3761
19.6428
25.6117
47.8972
28.4214
53.1162
41.3224
48.1194
34.7884
29.7726
29.5479
31.4655
44.1446
51.5376
38.4932
43.3474
38.7754
58.0185
74.4294
69.7337
83.5384
79.332
103.358
92.9157
94.4434
89.0606
68.2315
70.9297
63.5289
69.7261
99.038
104.885
88.7887
100.143
86.6779
69.3529
77.9854
63.1732
117.076
76.6991
97.1559
82.6722
48.2805
42.0604
45.91
40.661
69.5103
51.3823
69.0392
52.6662
13.7103
-12.9146
12.5485
3.64721
19.4139
-26.7304
-10.9512
71.0645
59.9722
47.1967
33.8199
20.6975
19.9578
5.4472
11.9788
36.9244
27.0811
24.2087
21.2878
6.36369
-8.91703
6.30416
7.00639
-5.02153
-12.952
-16.3399
3.24604
15.2268
-6.71818
-20.1364
-26.0003
1.84906
12.5722
-4.45006
-15.4763
-21.0447
0.904488
-0.181463
-3.26394
-1.76504
-1.86207
-0.385261
5.0189
14.3039
14.4396
12.55
-1.09439
29.7194
10.3334
13.7818
6.1511
5.38302
2.89312
0.115818
1.02746
14.6395
24.0237
32.0162
0.258238
-17.4181
12.1545
17.568
46.1668
34.7975
24.3563
25.5713
21.0296
20.0841
25.3727
28.0583
22.95
24.4779
53.9875
43.7628
20.8638
64.9895
43.229
21.9737
3.63307
44.8673
24.6257
-10.6857
-10.8974
-5.03413
-8.63401
-14.645
-13.5381
-8.43378
-10.2126
26.4124
19.4248
-13.6352
-13.9298
16.625
11.9329
-9.66422
-4.14523
-0.354984
6.55352
41.0125
28.5823
45.1473
64.3149
66.2391
70.1382
37.5268
63.8718
70.5762
79.0995
8.32134
54.9401
38.1407
75.3972
64.4077
73.2601
108.54
113.779
76.9725
54.4927
59.9521
88.2959
99.6196
49.9296
57.7401
91.0392
101.911
115.731
142.557
83.9472
48.7726
117.97
86.4452
61.2743
59.0009
101.573
96.8716
60.4276
59.3025
103.622
99.2306
55.6553
36.2784
87.2212
62.7508
59.7768
43.904
89.7708
68.1941
158.342
106.743
72.6003
117.056
80.8043
111.672
78.816
122.537
85.2207
-13.335
-15.8675
-7.44688
-13.5477
-14.7008
-16.7594
-9.7744
-14.725
-22.2561
50.2356
77.7235
83.4687
79.1962
91.1919
81.3526
104.132
92.9825
110.214
49.5187
79.278
100.118
77.8831
102.137
99.6193
121.675
96.5148
121.501
57.9787
114.98
65.8156
109.956
124.047
109.275
126.166
110.743
128.466
114.063
123.662
123.504
149.53
114.245
126.883
108.459
124.805
135.739
164.362
128.269
145.031
136.513
152.88
160.096
135.17
174.956
139.452
164.092
141.517
151.729
138.762
157.281
154.312
123.303
78.801
111.707
71.2424
152.242
100.282
130.955
91.4677
7.72877
-0.619748
12.3194
2.04489
5.34765
-2.17714
9.23553
-0.504348
-29.9263
42.2402
79.3988
15.0346
56.0551
47.7649
78.124
23.9859
42.5807
104.994
110.721
87.3112
90.2807
119.333
131.661
101.077
103.805
112.1
98.2353
91.8305
77.3441
130.617
98.1711
103.24
90.2755
76.6066
77.6288
58.1688
61.8817
84.2516
88.3589
63.6552
68.7273
55.7381
120.491
129.101
104.84
113.08
110.816
127.218
94.3032
108.819
109.758
75.9685
82.9236
65.872
69.0904
70.9145
72.7251
69.568
80.7717
62.3444
75.7713
56.5617
52.4133
45.4042
83.9517
61.4209
56.6906
47.0187
14.8183
10.3195
13.9353
9.19091
13.3572
9.48693
12.5228
8.45777
-26.1055
11.1223
45.6281
30.5034
11.7997
9.8694
35.9499
27.1744
12.6696
12.2952
4.23849
-9.09446
-22.934
7.56777
-0.792061
-0.790799
9.46281
-0.394714
15.5317
14.0707
41.3763
35.8797
-4.41478
-9.44057
-7.52344
-13.5756
8.29617
-1.52186
18.9423
-1.02745
-21.6232
-27.1672
3.31207
12.3276
-2.7616
10.5263
-3.48069
47.0045
37.7516
34.4197
24.8943
-7.17575
-14.3908
-6.99541
-14.2955
26.5404
1.61333
18.1257
0.0660815
-19.4906
-26.8058
0.610313
9.81322
-0.491343
-4.43786
-4.6175
-0.124418
-0.154422
11.9583
14.1532
11.5783
-0.242823
4.75375
14.0127
22.9259
31.2756
0.703325
2.52579
3.72241
10.2211
10.6257
15.2263
12.2524
9.25858
17.0065
-22.9485
-21.4358
-16.4337
-17.0819
-17.4801
-17.7495
-11.3978
-13.2801
-10.7719
-5.04199
4.57371
46.0182
28.2091
70.5775
6.52816
11.4233
12.3904
20.5223
75.2649
68.4965
60.1733
101.027
96.0636
57.5803
58.0824
94.4726
94.5054
101.652
164.536
55.8089
55.6142
70.348
86.9218
98.6776
71.5184
88.7935
91.0687
104.583
68.5621
130.835
57.006
56.9876
95.0707
92.6376
56.393
52.6996
95.7866
90.6679
50.0665
44.4164
82.2771
65.4564
50.2044
41.804
80.4937
62.2369
169.328
112.448
66.7263
124.573
67.1713
106.944
61.4932
116.831
60.5446
68.1359
56.7325
100.391
90.2889
64.9933
50.4632
81.2419
68.9944
47.0246
28.8126
71.6437
50.4633
43.3766
22.7708
61.689
40.1236
127.909
112.107
129.243
115.762
84.0918
70.8809
84.275
72.6352
87.8516
63.9557
89.4339
67.0472
66.5112
46.1995
64.986
48.572
-30.2069
-32.3621
13.3666
-19.5846
19.4021
-15.3556
6.64262
-22.9043
12.4481
-19.0847
-30.6293
-28.7246
-30.7958
-26.3214
-29.5333
-33.1018
54.4716
97.7845
55.2001
111.668
115.937
106.088
111.37
88.8574
102.259
85.2851
108.619
33.9235
55.6964
34.2636
46.6153
134.188
149.426
126.335
131.916
79.9568
96.0481
71.129
76.8452
157.966
115.747
84.481
112.497
81.3115
108.943
80.0935
105.638
78.0484
125.028
106.501
63.9209
91.1128
55.1155
97.3202
59.5515
83.4056
51.724
114.269
73.3379
87.4088
59.7311
-24.5003
-30.6287
-19.6087
-28.8239
-26.3855
-31.4732
-25.3541
-31.294
-50.3512
41.8537
84.393
23.723
46.3039
31.0164
39.0173
24.0867
28.5953
105.951
122.842
88.5035
94.004
92.1164
97.8453
77.5196
89.5191
86.673
46.3769
48.1584
39.2246
40.493
18.7707
16.3396
76.2737
55.0466
40.3903
25.0964
51.1453
28.3725
23.0965
8.68611
-12.7488
-22.0598
-13.1289
-21.1486
-20.6214
-25.987
-21.7054
-26.6061
-53.8051
18.6787
17.2406
16.562
12.816
15.7466
12.2656
13.7833
10.7516
19.6369
12.5176
-17.7766
-44.0425
9.08692
11.5633
18.3606
52.3137
28.0945
42.5154
28.2259
76.4081
28.3446
41.5245
76.5233
61.2314
55.3
71.4749
67.3507
90.927
86.9379
102.843
102.688
72.6262
88.1031
112.044
137.372
138.954
168.437
145.047
175.824
171.053
206.64
149.707
146.134
178.309
178.041
191.153
187.024
219.854
219.441
35.0834
18.7285
38.0021
33.0846
54.593
47.1535
81.4927
83.3023
96.8834
91.1944
26.9073
51.5322
40.2081
85.8263
72.3942
64.3438
52.2525
103.778
87.4953
31.8393
142.014
114.109
171.672
144.509
174.348
143.585
208.583
176.165
68.7634
35.8404
74.7715
41.1458
84.5886
47.5325
94.8573
53.5878
-9.5965
-15.0412
-7.83361
-15.2748
-8.96881
-15.2078
-5.26178
-14.074
-28.7478
12.9454
53.1534
3.14898
33.0591
29.9093
74.4968
7.29132
47.7053
81.9568
78.5147
47.0146
52.7734
139.873
169.538
128.525
153.871
171.371
207.735
154.018
186.056
181.231
181.273
152.903
152.284
220.37
224.921
191.078
192.057
78.9198
98.7731
97.2592
64.3073
62.7077
120.312
120.445
80.3491
76.9047
60.9494
51.4686
53.1259
43.4472
100.511
85.0088
85.9042
70.2283
28.4941
33.3439
19.1526
176.571
153.121
149.815
134.004
214.619
185.217
185.011
166.571
65.8436
87.5451
76.2761
61.8607
51.5315
109.711
94.6598
77.0336
65.0442
35.786
-14.1951
-24.0234
2.00057
28.5632
29.2026
3.14148
2.87289
39.7339
37.6429
10.4988
5.16927
26.5088
9.15646
11.588
5.61711
35.9669
16.1076
12.815
8.96234
-4.24053
-5.45042
1.0279
3.75301
12.9852
15.5332
11.5146
0.0801085
7.99165
15.3
23.2818
31.438
0.178866
12.2279
1.06454
-3.15604
5.46834
29.2244
10.1172
17.6837
23.3191
19.6062
31.1297
30.3965
30.0811
24.206
38.5946
35.5787
-21.5796
-21.3247
-21.1225
-21.1661
-20.7882
-20.9709
-20.2259
-20.7224
-16.3601
-8.63461
3.32716
-10.6104
8.99379
-13.576
-2.15894
-8.44257
-2.76826
-30.5027
28.601
73.9
83.8076
80.8909
87.3992
98.2921
104.794
85.8558
92.7489
16.7855
75.5716
74.4899
55.5181
54.8548
58.173
59.3224
33.889
33.6161
-7.10399
20.9482
2.72757
28.685
-5.48752
25.5224
-7.13775
22.6975
104.257
117.258
85.8522
100.431
105.061
116.876
76.6038
90.9789
-24.3517
8.80566
-45.0372
-18.0882
-36.6795
-5.4967
-67.0943
-43.2462
48.2303
60.8795
12.1767
18.4977
23.4372
33.9367
-19.2107
-14.6833
4.49471
-17.237
18.9568
-9.09771
-5.38324
-27.9577
0.461959
-26.8055
-35.9092
30.9746
-0.0851203
49.517
22.9298
0.789751
-24.5856
13.0171
-6.79767
-32.867
0.531688
-22.8205
3.33383
-23.2522
4.35562
-21.07
4.87773
-22.3866
-32.4758
-30.015
-32.9097
-46.4062
-42.7392
15.7419
8.21128
23.1079
3.98983
-0.778549
-45.049
7.61427
-46.8353
5.20056
31.7431
-10.1975
31.3012
46.2155
10.5849
23.5328
-30.08
-21.0478
-41.6784
-34.7775
-49.5275
-44.3308
-59.6879
-65.1417
-74.0193
-76.8771
-91.4225
-105.65
-27.8403
-20.1194
-53.5836
-48.4352
-68.1658
-62.4903
-100.831
-91.7035
-63.4667
-66.5633
-53.2693
-65.7356
-103.155
-115.548
-96.6901
-114.848
-50.5405
-35.9116
-60.9055
-53.8031
-99.7991
-94.8568
-105.802
-106.61
41.8637
40.6452
55.1149
57.3082
8.61413
10.4172
19.4687
23.2627
31.3912
14.8791
46.536
28.4851
11.9859
-1.66747
23.6882
9.22354
35.186
21.4418
-31.7096
-24.118
-57.9691
-43.5377
-59.1456
-63.1655
-58.8948
-63.3272
-60.0824
-62.855
-62.6894
-64.1904
-68.5915
25.4188
6.71356
24.6032
19.3461
18.8835
-9.63425
21.268
11.0021
-14.5563
-7.38913
-6.06409
-8.50634
-29.3102
-59.0788
-9.03745
-43.7156
-70.6427
-101.005
-52.4112
-84.1756
-96.0767
-33.2017
-58.815
10.9469
0.269902
-5.013
-14.6046
-62.9992
-54.9267
-49.9319
-52.0936
-65.6531
-67.6341
-64.6549
-66.9206
-69.1232
-69.3104
-68.4403
-69.0473
-78.7901
23.3319
5.03484
-6.41294
39.3376
28.2278
-14.2657
-35.426
39.4387
22.7555
-9.80455
-18.313
12.5648
-8.48357
-32.0168
-41.2577
9.13421
-15.7072
-49.4632
-67.8333
20.8414
53.2522
50.1329
95.9664
27.6462
81.908
41.648
105.837
99.204
73.6549
75.7239
128.158
128.134
88.4029
88.9642
144.176
145.933
154.176
193.262
183.704
225.594
167.057
207.977
195.747
238.038
209.939
210.397
242.696
245.629
221.203
229.501
255.19
258.46
110.543
95.4528
92.9595
153.021
156.59
95.5758
87.7127
154.422
156.409
177.874
211.754
203.445
246.498
179.308
219.318
206.896
248.986
233.068
240.732
263.93
265.727
239.923
251.327
268.846
264.906
73.0314
61.9869
118.424
99.5159
81.7801
60.7779
131.451
107.212
29.0205
202.184
176.377
231.612
200.899
219.791
191.494
246.97
213.542
89.3943
54.6777
106.165
67.1384
97.2819
57.3071
115.769
73.9318
84.0412
56.1121
135.206
111.622
80.9355
52.0253
139.207
109.938
27.2144
227.881
196.486
253.399
220.404
227.594
194.733
243.916
216.774
104.018
56.6918
118.662
78.0415
97.9305
46.3265
117.714
73.2626
-15.7033
-30.2885
3.31821
-15.3473
-21.7054
-36.4832
4.13854
-17.8549
-40.9394
31.6926
85.063
13.4769
52.0602
39.365
84.5956
120.148
70.5311
106.76
87.0589
123.806
75.2785
112.059
22.178
66.9967
183.032
225.008
157.735
195.011
192.393
236.233
165.551
204.613
241.497
242.116
211.008
210.639
252.172
254.767
222.108
228.443
100.758
123.483
70.423
85.9855
108.455
132.317
77.1334
93.4344
133.004
136.22
90.8858
88.5128
141.754
149.492
98.9353
98.4318
197.008
244.152
174.735
215.577
202.919
249.591
180.947
219.094
250.459
116.372
139.339
83.6066
98.0438
124.864
141.949
92.5998
103.884
151.351
153.795
101.388
102.254
154.303
155.856
99.8049
107.236
233.222
196.336
203.844
174.384
244.838
209.373
217.126
179.414
111.417
70.1355
97.2474
62.7264
123.458
79.4499
108.213
71.9728
122.533
108.983
84.5318
75.7673
135.139
118.858
90.8765
79.87
42.755
259.281
217.049
223.533
183.802
253.376
220.176
222.932
187.539
127.426
84.9744
114.268
76.35
128.493
82.9613
117.488
75.7805
144.383
125.15
94.4291
77.0749
146.272
129.197
87.8969
77.0612
46.6137
2.56753
-8.58322
3.44822
-7.65101
3.75595
-8.1453
5.00253
-6.68006
-20.0205
6.44881
40.214
32.3814
-7.26171
-2.41967
37.5297
29.7917
-23.605
-9.39573
37.4599
17.8602
10.3402
9.58874
34.9476
16.3139
4.25792
8.05655
-2.09436
-6.89576
1.96137
-9.2488
15.6399
18.4346
12.257
0.0624547
9.71937
18.6547
25.7767
33.3523
-1.87989
19.2802
-3.76747
6.76786
0.153359
23.2792
-1.86475
10.9851
-26.4229
-29.8305
-26.3119
-28.2911
-24.9264
-29.2692
-23.1826
-27.0682
-29.4523
-19.6459
-9.87361
-2.72622
-30.5422
-15.2432
-63.0972
-9.20013
-10.0308
14.8805
-49.6598
-27.9999
-22.0991
9.23635
-42.4706
-26.0343
-21.3493
-51.0678
-56.9831
-62.9991
-88.1208
-51.1375
-63.7675
-62.5798
-94.0366
7.10625
58.1159
57.5095
40.0499
45.2236
43.0739
41.9649
21.3038
25.5155
-58.2194
-33.9394
-84.8105
-77.1936
-76.4992
-61.6616
-106.364
-108.119
4.0825
-2.71051
-64.3885
-59.1364
-24.0513
-29.0712
-94.6658
-85.9189
0.985579
26.0875
-41.2372
-8.4034
-6.47687
20.7665
-41.574
-17.1967
35.9033
30.1452
10.9144
12.4169
28.8606
23.5316
0.692901
3.27139
-51.7894
-33.0794
-98.2302
-102.265
-51.4782
-40.3825
-89.5198
-100.342
-35.213
-35.8529
-95.8001
-84.9925
-37.7839
-34.7872
-93.3431
-82.6322
-50.4016
-57.4905
-56.4401
-59.0973
-47.3611
-55.3568
-55.3319
-57.7844
-58.6227
-48.1134
-20.6263
-65.7779
-80.6407
-75.6181
-98.5776
-72.664
-100.597
-83.4694
-115.1
-17.8379
-74.557
-105.983
-74.4418
-100.486
-86.3114
-121.043
-84.1315
-111.875
-35.55
-79.2296
-117.885
-86.7206
-128.772
-89.9867
-127.016
-98.8876
-136.55
-24.401
-91.0664
-126.02
-86.5496
-120.741
-81.5251
-123.455
-84.4311
-103.658
-93.2549
-81.7577
-113.786
-122.162
-116.043
-119.304
-133.423
-153.172
-84.2822
-80.8457
-127.461
-121.888
-121.754
-117.325
-159.835
-154.178
-171.324
-175.906
-171.675
-163.985
-180.229
-186.354
-104.594
-102.394
-115.718
-107.691
-106.689
-102.853
-117.772
-108.941
-89.0637
-77.0922
6.51957
-49.091
-89.2332
-58.8619
-69.6668
-54.4284
-103.889
-51.8438
-72.3519
18.6232
-4.91251
-11.9128
-52.4019
-109.908
-34.4877
-83.8945
-51.8033
-99.3361
-37.0608
-83.1066
8.30808
-3.51188
-138.683
-143.936
-47.1191
-77.2687
-132.031
-147.071
-37.7178
-65.6982
-9.76668
-27.364
-48.8914
-68.8807
-22.4219
-30.6572
-66.9854
-108.804
-102.058
-99.2383
-99.1281
-108.528
-102.101
-98.3351
-99.4197
-92.6136
-86.9115
18.7669
-14.4286
-33.9347
42.6322
30.772
13.9458
-15.301
61.0047
46.5546
-39.7079
-57.4723
17.9504
-16.7144
-35.5098
-57.33
20.7764
-16.7813
-66.3876
-74.6933
25.9102
76.0947
41.4693
111.107
27.0086
37.9251
42.6677
93.249
103.553
91.3198
82.3863
148.613
150.568
73.7941
64.4158
136.605
136.93
181.035
216.287
206.965
247.883
176.539
212.741
205.149
246.143
237.737
244.454
264.737
257.967
229.661
235.759
257.478
251.702
90.3644
65.0755
54.2143
117.984
116.556
56.5325
47.9266
101.762
101.485
166.267
200.532
196.992
240.474
155.735
187.203
184.812
226.764
223.87
71.4369
48.5067
136.656
105.69
62.6216
42.7157
127.92
97.6916
22.929
218.89
184.9
236.225
213.354
208.549
170.159
232.022
203.197
94.7902
41.5759
116.788
69.0986
85.1693
31.053
110.422
60.4892
53.1925
34.739
113.368
84.1397
42.3155
22.2251
100.148
71.9151
15.5174
194.314
153.788
226.923
190.441
182.148
141.594
221.694
183.459
74.5015
22.3465
100.424
50.3558
63.8372
11.4543
91.5848
39.9388
-26.128
-41.9998
4.91385
-19.8258
-26.5115
-40.6397
2.44537
-20.0281
-47.1524
38.7542
88.6525
129.765
78.1297
116.814
88.8639
132.808
75.8106
115.33
14.6515
74.5944
35.1132
81.8424
127.725
68.4486
114.867
71.3757
109.846
59.9954
105.991
13.8344
60.2281
206.653
250.395
184.475
223.628
207.27
248.174
185.379
224.473
245.787
130.369
147.346
98.6021
110.979
125.747
145.718
96.8419
110.087
154.392
152.84
97.8878
102.057
151.22
150.97
97.8839
98.6517
198.879
241.684
182.826
223.07
189.246
230.619
173.709
214.816
256.082
255.738
229.44
224.196
245.619
252.27
220.388
217.545
99.7299
143.512
144.882
98.0937
93.9865
140.422
143.496
92.4715
88.8281
250.656
222.115
222.975
189.239
248.684
215.522
220.62
184.924
125.277
78.9852
115.206
72.3727
117.762
72.2531
108.935
68.1492
144.092
129.849
84.1108
78.2589
143.364
124.524
85.3581
77.4445
47.5577
239.089
206.114
212.959
179.503
233.937
195.775
205.697
173.943
106.27
62.7093
99.5271
61.2344
98.4931
56.7223
92.8597
58.4856
140.278
118.216
81.6333
78.2548
130.093
106.073
80.0207
73.9288
42.9847
11.3332
-8.25021
10.3532
-5.57419
8.97956
-9.282
8.89765
-6.80234
-20.1273
5.36061
39.1884
29.7918
-27.4284
-4.14839
48.0229
28.0659
-16.8998
0.688968
30.8434
13.4082
5.0866
8.77484
23.2116
9.46227
3.62084
6.08797
-2.22573
-8.35198
1.25213
15.2711
21.9902
18.6774
12.609
0.0438169
15.1361
21.9603
28.7761
36.6543
1.83606
-14.4222
-28.4876
-29.5458
-27.0165
-28.7396
-27.6719
-29.588
-26.2294
-28.7153
-18.5428
-6.94949
-0.901553
-30.2319
-11.4772
-72.4819
4.08157
-22.8042
-0.224925
-54.8905
-9.48155
-13.693
-59.1994
-39.9709
30.8205
-2.6621
-29.99
-27.8965
-68.5824
-70.5765
-70.9999
-71.7012
-67.3129
-70.077
-70.289
-71.4135
-57.3146
-43.6605
-5.12899
-38.8545
-23.6102
-61.5054
-6.62966
-35.7506
-11.7311
-41.5696
-85.9808
-124.157
-99.6228
-132.017
-78.4754
-102.098
-82.2738
-109.563
-20.4508
-56.2706
-14.6627
-40.0692
-9.65272
-38.6663
-9.22707
-32.1177
-90.7734
-122.622
-66.7351
-100.478
-67.1215
-101.532
-51.5509
-90.4197
-6.8597
-66.0117
-86.1662
-58.61
-83.8451
-39.1503
-58.8929
-30.3541
-56.0755
-6.58624
-41.9097
-72.611
-20.424
-61.9483
-17.0063
-46.1701
-10.6442
-47.9964
-140.054
-123.261
-106.453
-168.66
-156.078
-98.1653
-84.587
-141.264
-131.946
-150.507
-159.836
-84.6497
-79.4988
-87.6574
-96.1545
-91.7328
-88.3449
-100.636
-93.263
-84.0504
-85.87
-89.4884
-89.5511
-78.4673
-65.8301
-9.3479
-29.4845
5.92306
-8.67827
-1.6648
-20.1873
0.636103
9.85245
-110.189
-157.475
-57.4019
-97.6256
-82.9832
-123.768
-37.4377
-71.5366
-120.202
-66.451
-80.9359
-30.7879
-36.033
-48.4379
-63.5564
-13.9145
-21.1166
-77.4962
-98.9406
-38.2608
-58.6949
-62.7123
-81.9325
-25.1688
-44.7256
-70.7418
-103.491
-34.578
-61.4138
-36.5865
-60.3974
-8.17689
-27.8418
-69.1135
32.6384
-3.43074
-79.2959
-74.1586
-68.9576
-70.9456
-68.1983
-69.7115
-60.4909
-66.8294
-72.3981
-67.7276
9.26437
-9.84394
12.5876
-14.5797
2.89953
18.1471
2.89386
27.4127
57.1026
14.3536
66.8643
55.9761
54.441
28.3222
58.7112
49.2998
-24.7449
-30.6011
-9.54308
-24.3848
-20.0476
-27.1847
-15.1613
-25.7512
-50.2259
-55.1246
19.5781
22.7802
29.1805
66.6997
8.98283
49.4533
10.1065
50.241
83.5464
86.1627
145.311
172.009
166.547
205.521
122.99
145.216
145.41
176.485
185.42
176.4
222.365
219.415
155.081
146.18
183.335
182.358
68.1
54.0174
79.3708
85.8058
75.1409
97.513
90.7177
51.8714
42.3858
65.0625
58.6433
38.2773
8.90292
99.4476
66.6189
22.6437
-4.64944
78.9757
50.4923
-1.77903
164.49
129.225
204.226
174.184
135.619
111.768
180.496
153.938
60.939
4.81222
80.9065
29.3484
47.3475
-5.11438
65.2751
19.6322
12.3618
-26.0643
60.1093
13.4706
-22.8351
-23.9695
-18.1084
-21.7663
-22.9719
-22.6021
-19.7993
-21.2292
-35.464
22.3574
66.8857
17.1971
53.4026
17.5885
44.5367
-1.4049
37.1957
174.127
212.59
157.997
194.665
148.507
187.032
139.632
170.928
227.145
229.1
201.906
204.62
197.436
201.954
177.968
177.87
81.0215
128.306
133.328
83.0003
81.7446
110.658
112.114
71.4593
68.5662
76.3384
76.6554
39.4904
44.3018
214.957
186.24
199.289
175.588
186.589
176.739
175.06
167.837
48.7007
61.1347
33.2218
50.3653
27.1542
32.1537
22.333
-7.78548
-17.1872
5.35905
54.8185
33.2837
-13.449
-11.9512
29.0389
8.44968
-37.301
-24.9385
-3.87679
-6.04769
-6.77016
2.20988
-5.57061
13.4848
14.2616
13.5318
0.699736
-9.20781
11.2815
30.2229
42.2375
0.6799
66.9307
30.5096
45.2623
29.4463
0.109528
17.5676
-4.99296
17.134
-16.0867
-6.32327
6.04832
2.09777
0.202729
-28.3003
-29.7929
-30.7906
-30.9451
-28.0214
-28.7176
-29.1085
-29.4038
-27.01
-17.9088
8.23987
-25.1422
1.55109
-3.30027
1.61809
-2.42399
1.10751
8.4297
-20.5345
-12.6346
0.0494727
-6.7659
-3.69256
-9.27034
19.0939
-1.26079
-25.8152
-28.0685
-26.0529
-30.1438
-26.738
-29.1042
-26.028
-30.73
-29.2353
-28.7143
-29.5782
-28.8422