# vtk DataFile Version 3.0
Gravity inversion using rectangular prisms
ASCII
DATASET UNSTRUCTURED_GRID

POINTS	3756	double
0	0	0
0	0	200
0	0	400
0	0	600
0	0	800
0	0	1000
0	200	0
0	200	200
0	200	400
0	200	600
0	200	800
0	200	1000
0	400	0
0	400	200
0	400	400
0	400	600
0	400	800
0	400	1000
0	600	0
0	600	200
0	600	400
0	600	600
0	600	800
0	600	1000
0	800	0
0	800	200
0	800	400
0	800	600
0	800	800
0	800	1000
0	1000	0
0	1000	200
0	1000	400
0	1000	600
0	1000	800
0	1000	1000
0	1200	0
0	1200	200
0	1200	400
0	1200	600
0	1200	800
0	1200	1000
0	1400	0
0	1400	200
0	1400	400
0	1400	600
0	1400	800
0	1400	1000
0	1600	0
0	1600	200
0	1600	400
0	1600	600
0	1600	800
0	1600	1000
0	1800	0
0	1800	200
0	1800	400
0	1800	600
0	1800	800
0	1800	1000
0	2000	0
0	2000	200
0	2000	400
0	2000	600
0	2000	800
0	2000	1000
200	0	0
200	0	200
200	0	400
200	0	500
200	0	600
200	0	800
200	0	1000
200	100	400
200	100	500
200	100	600
200	200	0
200	200	200
200	200	400
200	200	500
200	200	600
200	200	800
200	200	1000
200	400	0
200	400	200
200	400	400
200	400	600
200	400	800
200	400	1000
200	600	0
200	600	200
200	600	400
200	600	600
200	600	800
200	600	1000
200	800	0
200	800	200
200	800	400
200	800	600
200	800	800
200	800	1000
200	1000	0
200	1000	200
200	1000	400
200	1000	600
200	1000	800
200	1000	1000
200	1200	0
200	1200	200
200	1200	400
200	1200	600
200	1200	800
200	1200	1000
200	1400	0
200	1400	200
200	1400	400
200	1400	600
200	1400	800
200	1400	1000
200	1600	0
200	1600	200
200	1600	400
200	1600	600
200	1600	800
200	1600	1000
200	1800	0
200	1800	200
200	1800	400
200	1800	600
200	1800	800
200	1800	1000
200	2000	0
200	2000	200
200	2000	400
200	2000	600
200	2000	800
200	2000	1000
300	0	400
300	0	500
300	0	600
300	100	400
300	100	500
300	100	600
300	200	400
300	200	500
300	200	600
400	0	0
400	0	200
400	0	300
400	0	400
400	0	500
400	0	600
400	0	800
400	0	1000
400	100	200
400	100	300
400	100	400
400	100	500
400	100	600
400	200	0
400	200	200
400	200	300
400	200	400
400	200	500
400	200	600
400	200	800
400	200	1000
400	400	0
400	400	200
400	400	300
400	400	400
400	400	500
400	400	600
400	400	800
400	400	1000
400	500	200
400	500	300
400	500	400
400	500	500
400	500	600
400	600	0
400	600	100
400	600	200
400	600	300
400	600	400
400	600	500
400	600	600
400	600	800
400	600	1000
400	700	0
400	700	100
400	700	200
400	700	300
400	700	400
400	700	500
400	700	600
400	800	0
400	800	100
400	800	200
400	800	300
400	800	400
400	800	500
400	800	600
400	800	800
400	800	1000
400	900	200
400	900	300
400	900	400
400	900	500
400	900	600
400	1000	0
400	1000	200
400	1000	300
400	1000	400
400	1000	500
400	1000	600
400	1000	800
400	1000	1000
400	1100	400
400	1100	500
400	1100	600
400	1200	0
400	1200	200
400	1200	400
400	1200	500
400	1200	600
400	1200	800
400	1200	1000
400	1400	0
400	1400	200
400	1400	300
400	1400	400
400	1400	600
400	1400	800
400	1400	1000
400	1500	200
400	1500	300
400	1500	400
400	1600	0
400	1600	200
400	1600	300
400	1600	400
400	1600	600
400	1600	800
400	1600	1000
400	1800	0
400	1800	200
400	1800	400
400	1800	600
400	1800	800
400	1800	1000
400	2000	0
400	2000	200
400	2000	400
400	2000	600
400	2000	800
400	2000	1000
500	0	200
500	0	300
500	0	400
500	100	200
500	100	300
500	100	400
500	200	200
500	200	300
500	200	400
500	400	200
500	400	300
500	400	400
500	400	500
500	400	600
500	500	200
500	500	300
500	500	400
500	500	500
500	500	600
500	600	0
500	600	100
500	600	200
500	600	250
500	600	300
500	600	400
500	600	500
500	600	600
500	650	200
500	650	250
500	650	300
500	700	0
500	700	100
500	700	200
500	700	250
500	700	300
500	700	400
500	700	500
500	700	600
500	750	200
500	750	250
500	750	300
500	800	0
500	800	100
500	800	200
500	800	250
500	800	300
500	800	400
500	800	500
500	800	600
500	900	200
500	900	300
500	900	400
500	900	500
500	900	600
500	1000	200
500	1000	300
500	1000	400
500	1000	500
500	1000	600
500	1100	400
500	1100	500
500	1100	600
500	1200	400
500	1200	500
500	1200	600
500	1400	200
500	1400	300
500	1400	400
500	1500	200
500	1500	300
500	1500	400
500	1600	200
500	1600	300
500	1600	400
550	600	200
550	600	250
550	600	300
550	650	200
550	650	250
550	650	300
550	700	200
550	700	250
550	700	300
550	750	200
550	750	250
550	750	300
550	800	200
550	800	250
550	800	300
600	0	0
600	0	200
600	0	300
600	0	400
600	0	600
600	0	800
600	0	1000
600	100	200
600	100	300
600	100	400
600	200	0
600	200	200
600	200	300
600	200	400
600	200	600
600	200	800
600	200	1000
600	300	200
600	300	300
600	300	400
600	400	0
600	400	100
600	400	200
600	400	300
600	400	400
600	400	500
600	400	600
600	400	800
600	400	1000
600	500	0
600	500	100
600	500	200
600	500	300
600	500	400
600	500	500
600	500	600
600	600	0
600	600	100
600	600	200
600	600	250
600	600	300
600	600	400
600	600	500
600	600	600
600	600	700
600	600	800
600	600	1000
600	650	200
600	650	250
600	650	300
600	700	0
600	700	100
600	700	200
600	700	250
600	700	300
600	700	400
600	700	500
600	700	600
600	700	700
600	700	800
600	750	200
600	750	250
600	750	300
600	800	0
600	800	100
600	800	200
600	800	250
600	800	300
600	800	400
600	800	500
600	800	600
600	800	700
600	800	800
600	800	1000
600	850	200
600	850	250
600	850	300
600	900	0
600	900	100
600	900	200
600	900	250
600	900	300
600	900	400
600	900	500
600	900	600
600	900	700
600	900	800
600	1000	0
600	1000	100
600	1000	200
600	1000	300
600	1000	400
600	1000	500
600	1000	600
600	1000	700
600	1000	800
600	1000	1000
600	1100	200
600	1100	300
600	1100	400
600	1100	500
600	1100	600
600	1200	0
600	1200	200
600	1200	300
600	1200	400
600	1200	500
600	1200	600
600	1200	800
600	1200	1000
600	1300	200
600	1300	300
600	1300	400
600	1300	500
600	1300	600
600	1400	0
600	1400	200
600	1400	300
600	1400	400
600	1400	500
600	1400	600
600	1400	800
600	1400	1000
600	1500	200
600	1500	300
600	1500	400
600	1500	500
600	1500	600
600	1600	0
600	1600	200
600	1600	300
600	1600	400
600	1600	500
600	1600	600
600	1600	800
600	1600	1000
600	1800	0
600	1800	200
600	1800	400
600	1800	600
600	1800	800
600	1800	1000
600	2000	0
600	2000	200
600	2000	400
600	2000	600
600	2000	800
600	2000	1000
650	600	200
650	600	250
650	600	300
650	650	200
650	650	250
650	650	300
650	700	200
650	700	250
650	700	300
650	750	200
650	750	250
650	750	300
650	800	200
650	800	250
650	800	300
650	850	200
650	850	250
650	850	300
650	900	200
650	900	250
650	900	300
700	200	200
700	200	300
700	200	400
700	300	200
700	300	300
700	300	400
700	400	0
700	400	100
700	400	200
700	400	300
700	400	400
700	400	500
700	400	600
700	500	0
700	500	100
700	500	200
700	500	300
700	500	400
700	500	500
700	500	600
700	600	0
700	600	100
700	600	200
700	600	250
700	600	300
700	600	400
700	600	500
700	600	600
700	600	700
700	600	800
700	650	200
700	650	250
700	650	300
700	700	0
700	700	100
700	700	200
700	700	250
700	700	300
700	700	400
700	700	500
700	700	600
700	700	700
700	700	800
700	750	200
700	750	250
700	750	300
700	800	0
700	800	100
700	800	200
700	800	250
700	800	300
700	800	400
700	800	500
700	800	600
700	800	700
700	800	800
700	850	200
700	850	250
700	850	300
700	900	0
700	900	100
700	900	200
700	900	250
700	900	300
700	900	400
700	900	500
700	900	600
700	900	700
700	900	800
700	1000	0
700	1000	100
700	1000	200
700	1000	300
700	1000	400
700	1000	500
700	1000	600
700	1000	700
700	1000	800
700	1100	200
700	1100	300
700	1100	400
700	1100	500
700	1100	600
700	1200	200
700	1200	300
700	1200	400
700	1200	500
700	1200	600
700	1300	200
700	1300	300
700	1300	400
700	1300	500
700	1300	600
700	1400	200
700	1400	300
700	1400	400
700	1400	500
700	1400	600
700	1500	200
700	1500	300
700	1500	400
700	1500	500
700	1500	600
700	1600	200
700	1600	300
700	1600	400
700	1600	500
700	1600	600
750	700	200
750	700	250
750	700	300
750	750	200
750	750	250
750	750	300
750	800	200
750	800	250
750	800	300
750	850	200
750	850	250
750	850	300
750	900	200
750	900	250
750	900	300
800	0	0
800	0	200
800	0	300
800	0	400
800	0	600
800	0	800
800	0	1000
800	100	200
800	100	300
800	100	400
800	200	0
800	200	100
800	200	200
800	200	300
800	200	400
800	200	500
800	200	600
800	200	800
800	200	1000
800	300	0
800	300	100
800	300	200
800	300	300
800	300	400
800	300	500
800	300	600
800	400	0
800	400	100
800	400	200
800	400	250
800	400	300
800	400	350
800	400	400
800	400	450
800	400	500
800	400	600
800	400	800
800	400	1000
800	450	200
800	450	250
800	450	300
800	450	350
800	450	400
800	450	450
800	450	500
800	500	0
800	500	100
800	500	200
800	500	250
800	500	300
800	500	350
800	500	400
800	500	450
800	500	500
800	500	600
800	550	300
800	550	350
800	550	400
800	550	450
800	550	500
800	600	0
800	600	100
800	600	200
800	600	300
800	600	350
800	600	400
800	600	450
800	600	500
800	600	600
800	600	700
800	600	800
800	600	1000
800	700	0
800	700	100
800	700	150
800	700	200
800	700	250
800	700	300
800	700	400
800	700	500
800	700	600
800	700	700
800	700	800
800	750	100
800	750	150
800	750	200
800	750	250
800	750	300
800	800	0
800	800	100
800	800	150
800	800	200
800	800	250
800	800	300
800	800	400
800	800	500
800	800	600
800	800	700
800	800	800
800	800	1000
800	850	200
800	850	250
800	850	300
800	900	0
800	900	100
800	900	200
800	900	250
800	900	300
800	900	400
800	900	500
800	900	600
800	900	700
800	900	800
800	1000	0
800	1000	100
800	1000	200
800	1000	300
800	1000	400
800	1000	500
800	1000	600
800	1000	700
800	1000	800
800	1000	1000
800	1100	200
800	1100	300
800	1100	400
800	1100	500
800	1100	600
800	1100	700
800	1100	800
800	1200	0
800	1200	100
800	1200	200
800	1200	300
800	1200	400
800	1200	500
800	1200	600
800	1200	700
800	1200	800
800	1200	1000
800	1300	0
800	1300	100
800	1300	200
800	1300	300
800	1300	400
800	1300	500
800	1300	600
800	1300	700
800	1300	800
800	1400	0
800	1400	100
800	1400	200
800	1400	300
800	1400	400
800	1400	450
800	1400	500
800	1400	600
800	1400	700
800	1400	800
800	1400	1000
800	1450	400
800	1450	450
800	1450	500
800	1500	0
800	1500	100
800	1500	200
800	1500	300
800	1500	400
800	1500	450
800	1500	500
800	1500	600
800	1600	0
800	1600	100
800	1600	200
800	1600	300
800	1600	400
800	1600	500
800	1600	600
800	1600	800
800	1600	1000
800	1700	200
800	1700	300
800	1700	400
800	1800	0
800	1800	200
[...]
CELL_DATA	2502
SCALARS model double 1
LOOKUP_TABLE table0
-0.033371
9.03788
-5.62051
7.45143
41.2764
0.60035
0.933909
-3.24625
6.32383
25.4961
-0.661326
18.5692
8.15181
10.4703
17.772
0.532688
-9.26548
12.5623
18.0323
21.4575
-0.219799
9.23214
20.8362
23.7882
27.7325
0.0110246
-3.71689
21.6197
26.0416
27.8746
-0.0128499
7.18156
19.7099
23.6887
23.6016
0.754515
-2.90658
11.0865
19.0439
21.8172
0.591251
-0.103401
9.74374
21.2315
28.7987
0.205408
-6.566
12.0923
25.51
37.5792
0.602125
8.93804
-18.4596
-15.5109
-27.7047
-21.5285
-18.9735
-16.1945
-22.1836
-20.0631
19.0586
49.0041
2.16676
-8.80568
-30.7138
-2.97103
17.7218
1.56398
16.533
-17.468
-8.34343
-2.0938
1.9783
13.5985
-6.6757
-0.918638
-7.31627
-0.792788
20.0051
-10.2278
-1.69577
-5.25579
-0.989768
16.959
-14.3251
-10.6218
-6.56045
0.28995
18.4746
-14.5281
-15.2916
-11.3734
0.789004
7.4858
-15.4319
-13.1174
-9.22176
0.850312
0.472813
-7.9454
1.27801
7.54384
0.125446
2.8168
9.66055
18.9934
27.2922
0.41216
3.1756
-15.3262
39.5957
-11.599
44.0331
-40.4505
5.55133
-45.0993
4.15493
31.4378
49.2625
2.66472
2.60952
-12.0241
-0.879376
11.8079
6.65253
56.4401
47.1138
31.4306
41.1138
50.9719
40.2904
51.2878
40.4028
29.2706
26.5684
28.4655
26.4229
25.673
24.4002
26.0869
24.6109
-12.339
-14.4866
15.5489
-31.1133
8.55654
-29.5272
13.3838
83.9401
9.7547
80.7069
-2.45067
52.7395
31.5581
71.887
51.4979
87.0999
44.3607
103.574
138.022
174.488
137.581
202.091
119.104
42.8521
121.917
53.8963
146.823
131.07
226.813
118.619
234.413
147.882
46.8965
14.975
59.7205
26.1388
78.3013
31.881
95.0875
45.2095
-2.7262
-27.7343
4.33175
62.883
70.8551
33.3678
36.1742
122.235
126.895
44.322
69.4834
61.3678
29.1193
43.907
23.5066
89.5503
47.6634
62.3005
37.0437
-2.12033
-32.2934
1.4064
23.9305
-7.15867
-12.5055
-14.8594
-17.1924
-5.98886
-10.8644
-10.8306
-13.8918
-19.4215
-34.9726
-0.180578
28.7058
-18.2543
-33.3977
-37.068
0.278087
-5.56445
4.76263
51.6818
12.8301
30.2856
25.6284
50.7582
31.5201
-14.0921
-31.1613
-29.968
0.574412
13.2299
-9.53766
-9.96017
-5.29886
0.0454111
-1.55017
10.2743
17.3493
21.7796
0.283479
1.28372
19.737
32.8345
46.0602
2.69199
25.2838
28.068
31.6697
27.5071
19.4678
24.1873
21.1168
24.0938
-6.88188
-2.94277
6.36653
-2.32796
63.6937
26.9906
97.8638
11.4448
46.0484
30.4696
82.7253
84.4314
57.9407
136.139
109.34
82.3056
102.827
138.4
137.796
25.6579
10.2891
50.9803
23.8937
32.2077
16.0855
49.8353
27.8685
-20.9462
-23.762
20.6684
115.588
29.1862
147.987
57.9939
100.128
39.4737
130.173
160.451
199.555
168.173
222.79
174.627
206.177
190.092
233.514
164.873
177.533
240.57
178.618
257.034
199.881
258.083
210.414
271.846
196.147
190.654
170.328
182.932
242.917
193.776
251.034
178.135
237.365
185.802
243.17
201.586
93.3538
39.5304
117.594
54.4694
91.3533
54.8711
113.289
51.1966
-13.5055
-13.9185
-12.9339
-13.6038
-14.1963
-14.5496
-13.6811
-14.1826
-43.7231
10.129
138.351
11.0027
7.69506
17.2561
103.624
12.9375
38.9281
131.991
230.454
53.0391
151.525
188.674
271.39
108.963
201.063
170.894
70.451
88.3698
180.081
246.343
114.234
188.887
172.663
230.204
114.83
183.008
178.452
84.9951
98.5691
111.159
56.4297
71.7749
42.297
111.055
51.7385
74.8232
38.3352
-8.87537
-9.77193
-8.79154
-9.74935
-9.65531
-10.2885
-9.51296
-10.1625
-54.4869
4.3225
17.9561
34.3456
0.57002
18.9293
41.9285
41.309
47.0902
29.6498
32.4351
18.5388
16.854
6.07981
35.6994
18.6156
20.0594
5.7424
-22.3152
-57.6342
-0.469183
76.5181
42.6846
93.8531
45.27
83.4335
43.5262
68.144
48.5405
-9.16338
-13.3287
-11.465
-15.8602
-7.71979
-11.8842
-6.06589
-12.3105
-32.0647
-52.2342
-1.99287
38.008
37.8209
2.42619
30.4535
71.1045
49.1491
38.7012
35.4982
-12.742
-16.3858
-15.5012
-19.4637
-2.61027
-11.0688
-8.24466
-13.6719
-33.2948
-36.9481
1.42749
-0.357283
-11.8018
-13.0815
-8.45511
-0.751841
20.7831
19.8725
20.0739
20.5748
0.188862
10.1395
7.77257
3.60603
5.35069
0.251175
4.23847
2.05137
4.65098
19.0557
30.2251
42.6406
2.40795
-14.2068
5.0856
-10.3904
1.39411
-4.12185
4.80648
-11.2964
43.236
18.8894
39.0242
42.9907
51.5339
56.3837
59.1075
67.526
89.2587
79.8933
89.9818
91.5727
39.2166
56.8645
49.7908
51.5132
53.9975
57.6602
66.2901
64.0892
68.2605
69.5707
-13.6692
-12.9513
-12.7499
-12.3533
-12.9336
-12.9293
-11.2709
-11.764
-8.33257
0.973952
13.3487
1.97003
29.4934
63.9159
8.86669
-28.8539
15.6067
58.2296
36.6377
55.9459
46.7782
68.8672
37.1074
67.1038
45.6225
76.4215
57.8713
83.191
126.391
147.044
143.508
190.204
181.085
215.706
133.256
144.535
164.854
153.153
163.868
188.923
224.561
178.522
195.758
-1.66828
161.529
32.9545
145.483
9.16453
192.106
46.0655
164.965
195.024
232.173
231.194
257.685
222.923
269.453
231.178
263.747
95.3916
121.745
105.978
123.648
105.699
127.993
109.664
125.677
213.677
256.03
181.708
206.577
203.325
246.769
166.418
188.497
-0.226877
0.460356
6.56726
4.40747
5.54329
3.53647
10.9983
7.24425
-12.2507
22.0713
17.998
28.5245
22.2839
25.5867
20.1677
29.9415
23.4911
-2.37299
19.4409
15.9372
24.036
19.2743
28.0386
22.5951
31.1181
25.4169
-5.76617
30.8139
24.7218
33.1416
26.8351
36.0829
29.9327
36.5308
30.9409
0.537011
-34.9332
-33.357
34.9131
98.5403
52.1084
129.975
133.88
161.197
180.338
122.038
112.804
172.814
183.616
19.4427
54.0629
28.9227
48.6193
68.9498
140.002
143.545
-191.9
-80.7524
-1.41541
19.7165
178.001
155.448
211.69
169.51
120.161
120.868
122.231
115.729
117.168
118.012
121.215
109.961
114.442
90.7226
134.267
119.137
139.859
33.2178
101.289
63.2495
103.679
117.134
115.951
118.457
114.964
99.4258
104.504
96.5127
99.9859
59.7911
34.0527
79.3768
37.0684
44.9108
30.0873
44.8608
25.7502
-49.7288
-50.1819
-49.2638
-49.7843
-49.575
-50.2452
-49.2886
-49.8861
-60.7619
19.3341
77.6895
13.9284
52.1987
22.2732
40.8934
19.2034
32.5975
167.064
208.671
114.353
171.43
141.786
176.59
102.324
149.108
156.016
79.7738
90.9172
115.193
130.1
96.9816
118.763
80.8994
100.057
72.8168
93.2596
111.32
106.243
105.367
101.835
92.9563
93.5909
87.9276
89.2042
73.3216
63.0712
85.8517
29.8159
60.8312
18.4385
40.1963
0.75798
21.0115
-14.3359
-48.688
-49.2538
-48.4543
-48.9964
-48.9268
-49.4139
-48.8154
-49.1816
-77.9353
13.2314
34.8619
43.4436
26.9933
29.2154
37.7189
32.0238
20.7525
26.8964
29.1794
5.18426
15.1027
-1.25912
8.82244
-14.019
11.0097
-11.7398
-43.8264
-44.3012
-43.6485
-44.1704
-44.0892
-44.3995
-43.8456
-44.1965
-80.5125
1.82988
112.788
5.88752
12.5351
27.5719
0.749748
38.3525
48.1605
64.6314
56.8782
98.1098
101.569
62.034
82.3095
91.7531
142.831
112.113
167.671
114.067
171.371
141.33
209.123
156.982
152.487
200.845
202.268
192.666
200.304
248.236
237.598
35.7311
0.174877
85.5013
22.8227
60.1754
12.1997
160.124
120.543
191.979
158.07
178.29
145.766
223.887
176.619
42.3381
-23.7564
-24.2758
-23.5934
-24.5144
-23.5341
-24.091
-22.9498
-24.0356
-65.5078
-2.38721
115.077
-9.55884
60.2059
19.4971
71.6737
8.86904
41.992
128.935
103.614
67.1172
47.0795
152.091
172.904
190.454
162.085
159.673
214.224
176.805
190.511
202.625
205.311
173.253
175.321
260.656
252.176
226.95
227.309
93.181
119.895
130.201
66.4253
66.7787
170.824
181.739
104.657
110.02
59.609
50.5239
47.8947
41.8287
131.558
108.052
116.796
100.878
29.4562
42.5918
12.6122
199.67
175.512
183.01
167.779
233.4
199.203
217.8
189.825
53.6119
81.1497
33.5504
-19.4315
-37.6425
-1.29052
-4.99539
7.2211
29.1272
5.8531
34.798
19.9897
55.0083
8.24018
-7.51645
-10.5915
-4.90521
-0.112225
-1.6963
19.9041
21.0997
20.6579
0.218374
9.12425
18.5595
29.2062
41.2937
0.950069
5.85249
1.08818
1.77049
2.87758
11.5422
3.98068
7.09763
6.17968
-19.3104
-13.8177
-3.11838
2.41109
6.76954
4.38641
6.9823
-1.22075
-0.0599025
-3.99689
4.95987
23.9259
62.5777
64.4353
62.4145
65.0625
73.7766
73.6809
70.1547
71.9286
30.0225
55.4138
57.7963
53.6712
55.5809
59.9589
61.7731
55.8078
57.9458
34.2551
44.399
4.82076
25.3824
-44.5034
-45.8899
-44.4159
-45.404
-42.71
-44.9397
-43.0327
-44.5809
-49.7223
-42.1339
10.6611
52.8973
22.8496
21.5917
5.26284
17.1184
-7.82738
-23.2432
-58.124
-134.659
-82.0528
-134.882
-115.765
16.2035
-43.7515
-82.0678
-6.28769
-62.7984
-110.779
-125.989
-72.8515
-108.63
42.9301
43.9691
16.4712
33.5357
31.565
36.2406
5.69002
21.429
17.7082
4.05888
25.5357
25.6903
29.3385
-12.8271
5.19674
1.46563
5.35246
16.2976
18.0482
14.1146
14.6619
2.15792
7.90293
-2.83529
1.99391
-38.1344
-38.3418
-65.6776
-56.8542
-64.3107
-49.5094
-92.0837
-71.7655
-23.3753
-19.9145
-37.631
-30.8995
-26.7165
-21.5789
-44.1888
-35.4619
-96.8294
-92.3877
-95.7138
-96.9455
-120.201
-108.981
-120.842
-113.907
-76.8121
-70.5339
-83.7596
-77.1278
-85.0845
-77.0961
-92.6916
-84.7901
-41.2822
-54.5191
-47.7692
-59.4016
-57.6026
-62.2159
-78.0553
-73.1746
-81.782
-75.8107
23.664
26.464
18.3716
16.51
19.244
16.5057
22.3104
18.6503
38.0629
33.4327
34.8854
32.2433
13.3051
12.8099
12.1289
14.6676
-4.06702
29.4471
-5.39082
-67.6748
-71.8815
-67.4881
-66.6235
-84.9276
-81.447
-78.2149
-71.9934
-54.8635
-23.0204
-34.1123
-52.4327
-64.1423
-53.0505
-65.9
-80.8544
-78.9733
-77.5141
-79.9763
-94.8613
-96.3928
22.6161
32.6082
16.7265
27.642
29.9851
41.9702
20.7915
51.9647
47.3775
-26.1218
-38.1987
-4.27713
-29.1431
-37.0023
-44.4815
-15.3234
-36.6383
-75.6408
-95.9366
30.6886
27.2905
32.4335
7.09056
95.7264
31.7575
101.393
97.1199
142.234
66.7563
141.209
22.5401
105.484
20.8799
121.696
196.327
85.4852
177.545
118.272
215.516
107.196
199.483
-9.48416
46.0255
66.1363
113.416
74.7663
99.4575
136.186
154.689
70.0602
70.1232
125.43
122.613
98.4481
90.8066
143.712
134.528
135.66
191.337
179.433
241.401
207.33
236.277
227.414
279.612
216.697
210.705
284.038
269.058
246.794
233.402
306.244
282.457
151.496
136.448
198.036
184.413
174.633
147.375
200.919
178.88
122.486
108.155
156.203
142.996
128.369
111.725
154.297
140.293
252.408
263.45
270.807
300.279
274.635
268.765
289.479
304.147
264.781
245.504
308.49
284.567
262.003
247.087
301.826
283.101
48.8425
32.593
108.12
91.0547
70.0114
58.1412
126.224
110.654
3.57005
199.547
153.109
236.823
185.261
215.721
171.126
250.488
198.853
72.2407
51.5746
90.2304
61.7295
82.0867
50.5253
105.029
64.3449
77.2587
66.0932
137.113
118.703
77.9878
66.12
134.624
115.943
3.06577
223.745
179.68
259.067
213.986
220.087
175.822
258.319
215.361
92.5046
36.0015
121.245
66.5764
106.967
51.2047
138.01
80.4902
-36.3812
-64.8746
-9.20357
-45.8448
-45.7548
-71.764
-19.1848
-51.4938
-70.3747
21.3284
89.1664
-7.75487
71.6263
29.9322
76.3537
145.723
86.5082
150.022
85.407
149.315
84.9566
146.628
5.91876
112.155
183.564
251.622
172.824
232.32
226.061
286.816
202.948
270.361
290.648
279.228
255.436
240.158
305.069
292.14
270.463
257.61
154.302
167.726
171.543
121.861
152.04
196.242
160.009
134.206
207.6
198.51
137.579
127.256
234.873
211.859
168.362
144.684
259.122
306.469
225.233
288.457
266.515
306.969
224.802
281.919
254.273
168.055
228.82
165.119
162.01
158.882
228.604
144.23
159.127
237.845
194.896
177.631
156.423
227.057
194.994
179.061
159.816
255.869
193.717
226.504
181.18
262.455
209.606
235.623
186.812
105.097
69.4389
104.842
67.7322
118.033
73.2511
113.873
70.007
167.044
128.638
104.399
84.0391
182.428
142.08
120.1
94.8902
36.4545
269.539
222.629
243.269
197.133
269.929
222.834
240.531
197.316
126.482
75.4157
113.884
69.9466
136.367
82.4295
116.769
70.094
169.89
137.821
130.919
110.205
170.371
133.465
127.367
105.484
41.628
1.54945
-34.4641
-2.00405
-27.3384
-3.43397
-33.0507
-0.333491
-25.8869
-38.4226
-2.37042
55.8087
41.0626
-0.235972
-3.68062
71.1413
51.7572
-4.46464
9.45086
31.5471
11.074
12.1489
-3.74907
39.2389
19.9581
20.5112
5.23904
-6.29041
-1.77418
-1.20643
8.2743
20.4473
20.4188
20.0604
0.218004
9.77048
20.9476
30.9676
42.6606
1.53198
30.8838
-11.7378
35.6567
13.9924
12.6967
-18.3443
24.5299
6.05636
-27.2638
-29.8857
-24.2777
-27.5866
-28.1781
-31.1976
-24.5004
-28.3498
-20.1728
-21.4901
-18.4283
-20.1329
-21.6978
-23.0934
-19.488
-21.3308
-4.79148
-4.0178
-16.2817
-7.65247
-69.6321
-7.99523
-41.0979
-14.2635
-73.6544
-17.053
-18.6983
-60.9549
-39.7554
-21.8861
-22.8431
-77.0546
-49.5653
-69.4593
-72.3785
-70.0109
-72.0387
-69.3659
-72.8351
-70.0648
-72.4243
-61.8243
-47.2846
-5.10147
-109.933
-121.687
-126.55
-151.285
-17.8768
-101.192
-56.8463
-135.561
1.63368
13.3944
10.3899
-2.90686
-0.830897
1.27614
-3.83978
-16.4092
-123.636
-169.337
-103.353
-161.239
-79.9466
-161.746
-98.3044
-160.941
-35.5381
-108.556
-0.103747
-47.4744
-152.718
-98.0533
-152.399
-49.3777
-159.109
-91.529
-157.689
-125.688
-122.194
-149.823
-144.143
-128.673
-127.327
-154.555
-151.716
-105.027
-102.359
-121.366
-116.04
-107.822
-104.711
-126.406
-120.428
-192.958
-170.184
-174.568
-147.882
-189.082
-169.401
-110.991
-111.219
-131.159
-122.308
-116.503
-114.993
-134.167
-126.246
-100.097
-82.0385
16.8512
-94.8443
-94.0193
-121.199
-82.7256
-78.1192
-84.107
-75.7728
-62.5911
20.2904
7.77164
-4.4937
-60.6961
-59.0345
-27.0683
-33.245
-72.6555
-68.6117
-43.6301
-49.2087
10.7793
10.2199
-117.115
-110.737
-73.3229
-73.3254
-52.7234
-58.8366
-69.1611
-75.7608
-56.4281
-66.491
-87.0256
-98.6949
-101.164
-62.2487
-69.9721
-60.1133
-68.0554
-84.0214
-84.8723
-93.0298
-90.0378
-75.8849
-121.942
-117.008
-113.941
-114.144
-118.201
-117.573
-107.216
-113.086
-108.043
-98.0696
20.517
16.4164
9.30506
55.0637
53.1595
-1.30185
-0.941554
59.1132
52.0233
-58.658
-67.1718
-31.6978
-55.9167
-51.817
-63.8588
-25.5569
-53.0997
-85.3824
-92.1128
20.4157
81.5865
32.0546
116.268
34.7752
54.8489
39.1369
89.6368
105.931
124.686
111.676
144.582
135.373
102.175
96.9599
121.542
118.551
235.487
243.613
259.045
282.354
179.549
206.533
215.632
255.992
247.221
246.033
282.693
277.69
226.342
234.564
261.825
267.706
118.303
85.0058
87.7824
105.02
107.552
64.129
75.8522
86.986
96.3934
142.291
181.278
185.963
225.994
111.797
162.807
158.751
205.066
209.815
222.888
248.001
255.515
190.107
204.165
234.217
237.149
71.9661
55.7885
126.714
106.798
57.7362
45.4887
107.38
91.9872
-2.82489
213.891
167.021
255.834
210.384
202.514
156.577
248.663
201.378
104.395
50.3932
137.299
81.9891
97.7225
53.6661
127.733
77.4637
47.9013
39.0902
94.2978
81.46
35.2406
31.4969
81.1417
72.7081
1.00437
192.151
149.003
239.315
190.449
174.837
139.437
216.884
175.283
90.9531
51.67
111.636
68.4256
79.5593
45.0132
96.215
59.4127
-46.9196
-61.8312
-26.631
-51.8766
-45.7732
-60.1661
-30.2436
-51.9517
-72.0447
29.9814
92.4231
5.43512
26.3745
33.1951
99.8596
8.46793
54.3482
239.53
289.015
198.648
259.929
211.088
267.892
172.494
237.897
256.221
120.884
210.078
99.1594
140.419
106.012
191.633
82.7164
126.885
210.765
189.613
166.798
154.564
194.313
174.801
151.408
143.34
201.949
247.148
172.81
221.03
194.244
230.065
175.597
212.835
261.903
264.886
232.753
236.818
253.535
251.826
226.122
227.532
111.16
190.404
81.648
122.031
123.544
192.497
84.3145
127.934
194.377
177.788
139.628
125.772
185.218
165.026
130.328
118.463
267.132
218.76
237.717
195.079
261.795
212.096
232.497
190.079
137.454
85.418
116.152
73.6044
125.446
81.517
110.553
73.4357
164.25
129.159
121.709
105.083
154.779
123.95
118.59
102.81
41.9901
250.123
200.101
222.163
180.24
232.09
189.727
211.247
175.222
104.161
74.2204
99.6219
72.1764
91.1974
69.454
89.6456
69.2662
153.203
122.429
110.473
90.4691
137.889
112.323
103.794
88.0381
45.9073
-2.6241
-32.3542
1.66411
-25.2203
-0.939601
-29.6767
1.33761
-22.9684
-43.3333
-2.35426
68.318
54.1428
53.4264
20.7148
45.354
46.6383
24.0034
4.84169
44.6041
25.4925
18.9273
7.50809
42.4203
24.2901
10.3185
5.64091
-4.02994
-5.77911
-2.59103
15.091
16.1769
17.6279
16.7089
0.291607
12.9746
23.7453
33.9447
46.4704
1.56556
-1.35011
-19.3162
-3.21081
-14.123
11.6473
-21.1591
1.29114
-15.2143
-33.6578
-36.9185
-28.9435
-33.2537
-37.9115
-40.9379
-31.8628
-36.2247
-24.0544
-25.1732
-21.1988
-22.8853
-27.3809
-27.8093
-23.734
-24.9067
-2.11593
-2.59687
-19.0231
-10.3697
-25.4069
1.03708
-40.9438
-5.68301
-46.0986
11.0456
22.1614
-61.1196
-52.8853
107.917
140.659
51.7885
100.04
87.5109
123.147
21.8518
75.9509
20.8045
-25.4373
-39.1071
-78.0457
-81.8816
-78.9375
-81.2916
-80.8896
-84.396
-81.9684
-83.5764
-62.443
-43.0078
-19.5807
-99.7271
-137.17
-134.423
-180.736
-46.2246
-108.364
-110.984
-173.819
-11.8643
-101.447
-176.876
-103.4
-176.039
-130.247
-180.002
-136.617
-176.753
1.0995
-49.7221
-0.422656
-84.9747
-130.768
-106.848
-121.574
63.8921
-44.8029
51.9037
-42.0417
-141.449
-134.276
-166.467
-158.422
-138.096
-138.385
-162.051
-158.322
-109.077
-155.257
-118.088
-83.1974
-86.2
-84.3114
-91.3415
-99.4308
-100.55
-111.129
-109.802
-90.6448
-97.2767
-102.249
-107.666
-86.751
-68.8577
-8.74309
-9.02265
6.20632
-10.3064
-4.93856
6.94289
-0.240687
11.4981
-82.8852
-76.3053
-77.4625
-70.9144
-73.3911
-65.4714
-65.8778
-58.601
-53.4217
6.6934
-24.3224
-14.9259
-35.9578
21.6906
-21.5197
-76.4974
-81.0441
-64.0834
-76.4624
-71.4023
-80.0841
-66.6291
-78.9923
-76.7156
-72.4132
15.0582
-14.0074
23.7096
-23.2828
4.60828
12.6285
9.61797
13.9754
58.3613
22.2608
-30.9754
22.4262
-39.9516
18.1691
2.59071
44.2144
-1.78523
42.8554
57.225
54.1945
10.7287
81.2149
27.1826
-17.2198
-33.4356
-3.35652
-24.2623
-25.0968
-38.8815
-14.3016
-30.4027
-51.8562
-51.6139
-51.922
-51.4166
-50.8762
-50.6889
-51.044
-50.5209
-61.462
35.0977
-112.533
-118.962
-19.1278
-60.277
-55.7599
-80.0082
-41.3052
-77.2028
28.6975
55.7067
5.90769
51.9137
9.42733
-3.48658
13.5634
94.8128
60.8907
81.4627
75.8107
6.32478
51.7368
127.42
110.379
98.9833
149.568
143.753
193.921
97.3775
140.665
134.375
175.514
168.553
158.815
208.292
194.38
138.702
117.213
181.152
159.923
54.1112
75.4237
50.859
77.3227
96.7173
101.702
83.9295
93.9461
47.8497
84.4031
85.0906
58.7809
27.9732
138.813
134.558
166.434
151.275
127.953
133.515
145.672
143.379
43.6575
41.7121
26.4217
59.0333
34.5005
-34.4086
-50.5814
-27.0177
-45.9665
-39.0459
-53.3375
-30.6087
-47.609
-46.9277
20.6563
93.8623
6.15911
59.6107
1.08702
89.3379
1.08587
-14.9574
183.671
213.794
171.146
206.849
161.691
182.326
146.297
180.31
233.276
224.912
217.121
211.936
198.253
188.914
188.346
182.985
121.471
191.756
70.041
126.505
92.8827
164.081
45.0539
107.877
174.916
151.563
123.884
109.527
155.78
138.076
116.426
106.244
138.339
136.233
115.205
143.195
110.357
98.2432
84.2354
106.385
123.009
107.626
136.197
119.914
90.8574
83.9591
101.633
90.3
64.6654
115.99
114.373
102.488
107.507
101.501
99.5796
100.022
99.8119
196.884
169.743
192.676
160.827
167.747
153.829
163.189
143.227
72.2704
56.3231
76.1991
56.7692
66.4438
53.1017
68.9707
52.3622
122.013
101.592
91.88
76.0498
110.197
93.306
84.6556
69.7841
41.7893
80.6378
72.332
88.3221
75.6584
58.9632
54.0068
62.2486
53.6351
42.4148
60.9169
40.4707
-12.3143
-11.7572
-12.6283
-12.1532
-12.8006
-11.6639
-13.6049
-12.3857
-30.4006
-0.50052
35.2575
17.3328
11.0257
5.40279
39.5
17.262
2.10177
-0.0924635
-8.2973
-11.7383
-14.4384
-15.5292
-11.1092
-14.0933
-19.4105
-18.7964
-5.74381
-4.19175
0.363377
-4.01745
7.08501
15.6339
15.5871
0.826178
-9.43806
13.2637
36.0974
53.9893
-0.290709
60.7333
14.8036
36.7107
20.1187
18.5541
7.22387
-8.77579
8.08049
-23.4664
-7.83486
11.0897
0.614849
73.128
38.4261
6.7628
-10.0042
4.73242
46.4321
24.058
18.4087
-46.0236
-47.6404
-47.0419
-46.6408
-52.5758
-50.6133
-53.649
-50.0338
-33.7883
-17.4553
5.39392
-24.4163
0.417559
-7.57556
1.35607
8.16267
-1.74228
4.15298
-9.29929
-44.3115
-3.704
-46.2893
40.8057
3.22335
18.744
-3.18763
-24.7924
-28.5044
-35.8437
-40.0883
-13.0058
-23.7661
-31.2319
-39.2741
-35.9331
-44.4636
-46.1862
-51.6469
-34.4641
-42.8762
-47.0458
-51.5404
-27.161
-27.1367
-24.9906
-24.9464
-26.2383
-25.7802
-23.7588
-23.3314
-0.388327
55.8138
34.3201
49.5882
30.7594
46.0288
30.551
11.8011
16.1679
-14.2566
-22.3639
-19.2661
-26.3318
-18.7091
-24.8726
-27.5519
-30.6826
-37.7111
-42.1875
-42.0844
-46.1514
-40.0286
-42.966
-45.1621
-47.181
-15.8316
-15.7532
-14.2776
-14.0786
-14.3074
-13.9012
-12.5599
-12.0672
-0.17681
59.3207
41.8017
75.5712
47.4185
12.4761
23.5609
32.4123
31.1473
10.8787
0.338537
0.70562
0.0381153
0.826105
1.25084
2.13668
0.903063
2.22693
-2.68575
-2.30434
-2.23904
-1.5481
-0.885539
-0.221294
-0.455326
0.536822
0.793892
8.82328
-4.64306
22.5852
0.472002
-6.79065
-0.580783
2.10291
50.5941
-6.71407
52.0045
21.4404
-17.7264
-19.7402
25.5187
-3.27722
14.5753
2.64219
1.98648
0.237347
5.45465
-0.561115
30.9526