# vtk DataFile Version 3.0
Gravity inversion using rectangular prisms
ASCII
DATASET UNSTRUCTURED_GRID

POINTS	6416	double
0	0	0
0	0	200
0	0	400
0	0	500
0	0	600
0	0	700
0	0	800
0	0	900
0	0	1000
0	100	400
0	100	500
0	100	600
0	100	700
0	100	800
0	100	900
0	100	1000
0	200	0
0	200	200
0	200	400
0	200	500
0	200	600
0	200	700
0	200	800
0	200	900
0	200	1000
0	400	0
0	400	200
0	400	400
0	400	600
0	400	800
0	400	1000
0	600	0
0	600	200
0	600	400
0	600	600
0	600	800
0	600	1000
0	800	0
0	800	200
0	800	400
0	800	600
0	800	800
0	800	1000
0	1000	0
0	1000	200
0	1000	400
0	1000	600
0	1000	800
0	1000	1000
0	1200	0
0	1200	200
0	1200	400
0	1200	600
0	1200	800
0	1200	1000
0	1400	0
0	1400	200
0	1400	400
0	1400	600
0	1400	800
0	1400	1000
0	1600	0
0	1600	200
0	1600	400
0	1600	600
0	1600	800
0	1600	1000
0	1800	0
0	1800	200
0	1800	400
0	1800	600
0	1800	800
0	1800	1000
0	2000	0
0	2000	200
0	2000	400
0	2000	600
0	2000	800
0	2000	1000
100	0	400
100	0	500
100	0	600
100	0	700
100	0	800
100	0	900
100	0	1000
100	100	400
100	100	500
100	100	600
100	100	700
100	100	800
100	100	900
100	100	1000
100	200	400
100	200	500
100	200	600
100	200	700
100	200	800
100	200	900
100	200	1000
200	0	0
200	0	200
200	0	400
200	0	500
200	0	600
200	0	700
200	0	800
200	0	900
200	0	1000
200	100	400
200	100	500
200	100	600
200	100	700
200	100	800
200	100	900
200	100	1000
200	200	0
200	200	200
200	200	400
200	200	500
200	200	600
200	200	700
200	200	800
200	200	900
200	200	1000
200	300	800
200	300	900
200	300	1000
200	400	0
200	400	200
200	400	300
200	400	400
200	400	600
200	400	800
200	400	900
200	400	1000
200	500	200
200	500	300
200	500	400
200	600	0
200	600	200
200	600	300
200	600	400
200	600	500
200	600	600
200	600	800
200	600	1000
200	700	200
200	700	300
200	700	400
200	700	500
200	700	600
200	800	0
200	800	200
200	800	300
200	800	400
200	800	500
200	800	600
200	800	800
200	800	1000
200	900	200
200	900	300
200	900	400
200	1000	0
200	1000	200
200	1000	300
200	1000	400
200	1000	600
200	1000	800
200	1000	1000
200	1200	0
200	1200	200
200	1200	400
200	1200	600
200	1200	800
200	1200	1000
200	1400	0
200	1400	200
200	1400	400
200	1400	600
200	1400	800
200	1400	1000
200	1600	0
200	1600	200
200	1600	400
200	1600	600
200	1600	800
200	1600	1000
200	1800	0
200	1800	200
200	1800	400
200	1800	600
200	1800	800
200	1800	1000
200	2000	0
200	2000	200
200	2000	400
200	2000	600
200	2000	800
200	2000	1000
300	0	400
300	0	500
300	0	600
300	0	700
300	0	800
300	100	400
300	100	500
300	100	600
300	100	700
300	100	800
300	200	400
300	200	500
300	200	600
300	200	700
300	200	800
300	200	900
300	200	1000
300	300	800
300	300	900
300	300	1000
300	400	200
300	400	300
300	400	400
300	400	800
300	400	900
300	400	1000
300	500	200
300	500	300
300	500	400
300	600	200
300	600	300
300	600	400
300	600	500
300	600	600
300	700	200
300	700	300
300	700	400
300	700	500
300	700	600
300	800	200
300	800	300
300	800	400
300	800	500
300	800	600
300	900	200
300	900	300
300	900	400
300	1000	200
300	1000	300
300	1000	400
400	0	0
400	0	200
400	0	300
400	0	400
400	0	500
400	0	600
400	0	700
400	0	800
400	0	1000
400	100	200
400	100	300
400	100	400
400	100	500
400	100	600
400	100	700
400	100	800
400	200	0
400	200	100
400	200	200
400	200	300
400	200	400
400	200	500
400	200	600
400	200	700
400	200	800
400	200	900
400	200	1000
400	300	0
400	300	100
400	300	200
400	300	300
400	300	400
400	300	800
400	300	900
400	300	1000
400	400	0
400	400	100
400	400	200
400	400	300
400	400	400
400	400	500
400	400	600
400	400	800
400	400	900
400	400	1000
400	500	0
400	500	100
400	500	200
400	500	250
400	500	300
400	500	400
400	500	500
400	500	600
400	550	200
400	550	250
400	550	300
400	600	0
400	600	100
400	600	200
400	600	250
400	600	300
400	600	400
400	600	500
400	600	600
400	600	700
400	600	800
400	600	1000
400	650	200
400	650	250
400	650	300
400	700	0
400	700	100
400	700	200
400	700	250
400	700	300
400	700	350
400	700	400
400	700	500
400	700	600
400	700	700
400	700	800
400	750	300
400	750	350
400	750	400
400	800	0
400	800	100
400	800	200
400	800	300
400	800	350
400	800	400
400	800	500
400	800	600
400	800	700
400	800	800
400	800	1000
400	900	0
400	900	100
400	900	200
400	900	250
400	900	300
400	900	400
400	900	500
400	900	600
400	950	200
400	950	250
400	950	300
400	1000	0
400	1000	100
400	1000	200
400	1000	250
400	1000	300
400	1000	400
400	1000	500
400	1000	600
400	1000	800
400	1000	1000
400	1100	200
400	1100	300
400	1100	400
400	1200	0
400	1200	200
400	1200	300
400	1200	400
400	1200	600
400	1200	800
400	1200	1000
400	1300	200
400	1300	300
400	1300	400
400	1400	0
400	1400	200
400	1400	300
400	1400	400
400	1400	600
400	1400	800
400	1400	1000
400	1600	0
400	1600	200
400	1600	400
400	1600	600
400	1600	800
400	1600	1000
400	1800	0
400	1800	200
400	1800	400
400	1800	600
400	1800	800
400	1800	1000
400	2000	0
400	2000	200
400	2000	400
400	2000	600
400	2000	800
400	2000	1000
450	500	200
450	500	250
450	500	300
450	550	200
450	550	250
450	550	300
450	600	200
450	600	250
450	600	300
450	650	200
450	650	250
450	650	300
450	700	200
450	700	250
450	700	300
450	700	350
450	700	400
450	750	300
450	750	350
450	750	400
450	800	300
450	800	350
450	800	400
450	900	200
450	900	250
450	900	300
450	950	200
450	950	250
450	950	300
450	1000	200
450	1000	250
450	1000	300
500	0	200
500	0	300
500	0	400
500	0	500
500	0	600
500	100	200
500	100	300
500	100	400
500	100	500
500	100	600
500	200	0
500	200	100
500	200	200
500	200	300
500	200	400
500	200	500
500	200	600
500	200	800
500	200	900
500	200	1000
500	300	0
500	300	100
500	300	200
500	300	300
500	300	400
500	300	800
500	300	900
500	300	1000
500	400	0
500	400	100
500	400	150
500	400	200
500	400	250
500	400	300
500	400	400
500	400	500
500	400	600
500	400	800
500	400	900
500	400	1000
500	450	100
500	450	150
500	450	200
500	450	250
500	450	300
500	500	0
500	500	100
500	500	150
500	500	200
500	500	250
500	500	300
500	500	350
500	500	400
500	500	450
500	500	500
500	500	600
500	550	100
500	550	150
500	550	200
500	550	250
500	550	300
500	550	350
500	550	400
500	550	450
500	550	500
500	600	0
500	600	100
500	600	150
500	600	200
500	600	250
500	600	300
500	600	350
500	600	400
500	600	450
500	600	500
500	600	600
500	600	700
500	600	800
500	650	100
500	650	150
500	650	200
500	650	250
500	650	300
500	650	350
500	650	400
500	700	0
500	700	100
500	700	150
500	700	200
500	700	250
500	700	300
500	700	350
500	700	400
500	700	450
500	700	500
500	700	600
500	700	700
500	700	800
500	750	100
500	750	150
500	750	200
500	750	250
500	750	300
500	750	350
500	750	400
500	750	450
500	750	500
500	800	0
500	800	100
500	800	150
500	800	200
500	800	250
500	800	300
500	800	350
500	800	400
500	800	450
500	800	500
500	800	600
500	800	700
500	800	800
500	850	200
500	850	250
500	850	300
500	850	350
500	850	400
500	850	450
500	850	500
500	900	0
500	900	100
500	900	200
500	900	250
500	900	300
500	900	350
500	900	400
500	900	450
500	900	500
500	900	600
500	950	200
500	950	250
500	950	300
500	1000	0
500	1000	100
500	1000	200
500	1000	250
500	1000	300
500	1000	400
500	1000	500
500	1000	600
500	1100	200
500	1100	300
500	1100	400
500	1200	200
500	1200	300
500	1200	400
500	1300	200
500	1300	300
500	1300	400
500	1400	200
500	1400	300
500	1400	400
550	400	100
550	400	150
550	400	200
550	400	250
550	400	300
550	450	100
550	450	150
550	450	200
550	450	250
550	450	300
550	500	100
550	500	150
550	500	200
550	500	250
550	500	300
550	500	350
550	500	400
550	500	450
550	500	500
550	550	100
550	550	150
550	550	200
550	550	250
550	550	300
550	550	350
550	550	400
550	550	450
550	550	500
550	600	100
550	600	150
550	600	200
550	600	250
550	600	300
550	600	350
550	600	400
550	600	450
550	600	500
550	650	100
550	650	150
550	650	200
550	650	250
550	650	300
550	650	350
550	650	400
550	700	100
550	700	150
550	700	200
550	700	250
550	700	300
550	700	350
550	700	400
550	700	450
550	700	500
550	750	100
550	750	150
550	750	200
550	750	250
550	750	300
550	750	350
550	750	400
550	750	450
550	750	500
550	800	100
550	800	150
550	800	200
550	800	250
550	800	300
550	800	350
550	800	400
550	800	450
550	800	500
550	850	200
550	850	250
550	850	300
550	850	350
550	850	400
550	850	450
550	850	500
550	900	200
550	900	250
550	900	300
550	900	350
550	900	400
550	900	450
550	900	500
600	0	0
600	0	200
600	0	300
600	0	400
600	0	500
600	0	600
600	0	800
600	0	1000
600	100	200
600	100	300
600	100	400
600	100	500
600	100	600
600	200	0
600	200	100
600	200	200
600	200	300
600	200	400
600	200	500
600	200	600
600	200	700
600	200	800
600	200	900
600	200	1000
600	300	0
600	300	100
600	300	200
600	300	300
600	300	400
600	300	500
600	300	600
600	300	700
600	300	800
600	300	900
600	300	1000
600	400	0
600	400	100
600	400	150
600	400	200
600	400	250
600	400	300
600	400	400
600	400	500
600	400	600
600	400	700
600	400	800
600	400	900
600	400	1000
600	450	100
600	450	150
600	450	200
600	450	250
600	450	300
600	500	0
600	500	100
600	500	150
600	500	200
600	500	250
600	500	300
600	500	350
600	500	400
600	500	450
600	500	500
600	500	600
600	500	700
600	500	800
600	550	100
600	550	150
600	550	200
600	550	250
600	550	300
600	550	350
600	550	400
600	550	450
600	550	500
600	600	0
600	600	100
600	600	150
600	600	200
600	600	250
600	600	300
600	600	350
600	600	400
600	600	450
600	600	500
600	600	550
600	600	600
600	600	700
600	600	800
600	600	1000
600	650	100
600	650	150
600	650	200
600	650	250
600	650	300
600	650	350
600	650	400
600	650	450
600	650	500
600	650	550
600	650	600
600	700	0
600	700	100
600	700	150
600	700	200
600	700	250
600	700	300
600	700	350
600	700	400
600	700	450
600	700	500
600	700	550
600	700	600
600	700	700
600	700	800
600	750	100
600	750	150
600	750	200
600	750	250
600	750	300
600	750	350
600	750	400
600	750	450
600	750	500
600	750	550
600	750	600
600	800	0
600	800	100
600	800	150
600	800	200
600	800	250
600	800	300
600	800	350
600	800	400
600	800	450
600	800	500
600	800	550
600	800	600
600	800	700
600	800	800
600	800	1000
600	850	100
600	850	150
600	850	200
600	850	250
600	850	300
600	850	350
600	850	400
600	850	450
600	850	500
600	900	0
600	900	100
600	900	150
600	900	200
600	900	250
600	900	300
[...]
CELL_DATA	4476
SCALARS model double 1
LOOKUP_TABLE table0
1.22621
-15.9643
-55.2848
-58.6349
-50.1951
-55.7375
-29.2005
-45.7883
-14.1391
-38.5873
12.6226
15.9514
14.7122
17.4024
21.7495
23.0839
25.4001
25.0215
87.9871
89.7722
88.1166
89.6157
89.6216
90.7824
89.497
90.4754
0.279158
7.59648
-15.8206
17.7042
53.6103
0.70126
-5.94497
-6.63169
13.1544
34.1612
-0.0307863
9.76633
8.75582
17.9696
30.4934
0.494041
-6.77725
8.59313
21.6197
33.7802
-0.817026
2.98518
16.3731
25.0448
35.192
-0.517752
4.79606
18.2673
26.1383
33.0495
0.801063
-15.2086
9.42981
24.3646
31.0995
-0.00100997
3.89722
11.5804
24.2446
31.8072
0.59848
-12.6977
-0.0974157
19.6681
31.9947
0.754258
-6.11875
0.0884289
0.186334
3.00351
1.37181
-0.179077
1.30336
1.24553
1.70289
50.8569
52.0456
51.1614
51.935
51.8936
52.768
51.7862
52.4278
81.3561
-0.601855
21.0558
-13.1891
11.6154
38.6704
39.1778
38.5007
38.9211
38.8425
39.2552
38.5809
38.9377
1.25637
-25.457
-8.51777
-22.8754
-9.26674
-3.53255
-4.69232
-3.66415
-5.71037
-13.6843
-4.99408
6.94466
0.285882
16.2939
14.6771
22.0213
11.6714
17.5477
17.6076
28.9839
18.452
-4.81262
-3.7458
-6.71087
-4.66295
-3.38449
-3.14735
-3.7708
-3.48618
-3.95703
-4.67179
0.82495
8.84495
7.16622
32.6331
17.2591
8.35583
11.6005
-6.51575
11.438
-9.53635
-4.0379
-4.71857
-0.64042
25.8512
-9.34153
-9.06852
-3.24673
-1.35066
16.946
-7.91241
-10.9042
-3.98336
-0.604427
15.0519
-7.88703
-7.40204
-0.676242
-0.0184479
1.38998
-5.13652
4.53519
12.953
-0.0223746
-1.07829
4.63905
16.7253
26.4468
0.497588
-43.5884
-26.4382
-31.3571
-23.2566
-16.8327
-23.0394
-11.4029
-21.1143
23.4061
25.1622
24.1934
25.1453
24.0693
25.3693
24.3594
25.086
48.5003
69.6471
0.329702
-11.6261
-0.142344
9.00834
-2.69434
16.0152
-0.619992
-16.026
8.04647
9.62645
12.3427
10.6394
14.592
10.04
10.3759
9.90041
-12.4154
1.24621
22.9335
23.3029
22.6283
22.9553
22.7392
23.09
22.4133
22.7315
-1.0206
-22.1646
-3.22482
16.8013
-2.68731
-45.831
-25.9851
-57.3432
-17.1166
31.8059
20.2862
17.2338
38.8837
-1.04562
-25.1573
8.97695
49.9134
95.2379
36.4681
74.952
74.5546
140.516
14.0391
47.9568
28.9257
39.1018
28.3458
42.196
54.7038
68.5527
71.5659
82.1554
72.334
29.0212
67.9103
45.9347
84.155
53.5769
76.171
75.3452
92.2012
72.3881
87.3969
137.131
106.08
155.434
130.575
176.98
158.934
202.703
123.658
113.408
133.528
117.196
128.973
117.956
139.096
121.921
4.16411
0.475413
4.78471
1.0946
2.21502
-0.176012
17.2201
11.3207
20.2154
12.9672
15.5589
10.7718
18.5228
12.4267
0.184568
-22.0727
-14.4412
0.774903
-23.5668
8.98158
6.02372
7.2949
55.5746
73.5322
0.362766
20.93
74.7997
129.535
40.4135
86.5804
17.5471
-24.6779
19.8163
-25.218
35.1761
30.2999
63.0271
12.9832
51.7982
3.96743
43.8504
-5.33064
43.0782
50.2712
85.8498
27.3445
79.1269
82.0199
37.233
61.9468
74.0009
52.939
67.3331
96.6926
101.7
86.897
96.6404
93.9191
153.355
63.9313
130.672
153.543
216.123
122.635
198.263
155.921
152.124
160.63
157.446
172.882
162.869
181.734
169.156
58.641
117.934
50.3849
77.526
102.811
175.939
90.9848
129.313
160.513
173.248
125.154
146.972
192.823
191.884
162.334
170.929
74.645
56.8306
81.1716
62.3326
95.3799
66.6569
120.574
112.549
112.16
105.996
123.064
115.991
116.945
110.952
76.1833
-19.2212
-21.7575
-19.116
-21.9842
-19.7054
-21.7071
-19.8054
-22.043
-33.1652
6.82623
-1.61601
4.42933
12.3808
2.94885
28.4794
9.00632
37.8321
9.54539
39.429
-19.736
-23.8347
-20.4523
-27.938
8.22964
-4.58831
-1.03475
-14.1601
25.1917
28.3338
59.1456
20.7929
33.6194
81.5084
121.991
66.467
88.397
74.3802
65.8124
39.2865
38.4653
108.44
86.05
76.8506
63.5122
33.4824
34.2586
34.4015
29.9743
32.0677
29.3726
46.7313
43.7441
34.9472
35.6018
56.1429
50.5972
47.6331
44.6558
28.3646
30.3679
27.9333
-16.1183
-38.729
2.1322
8.88776
16.4161
23.3356
19.6096
11.1901
16.6001
18.6549
18.2528
-12.8735
-25.2859
-37.8343
-0.512355
37.2824
35.1433
39.6798
38.3924
25.9625
33.3544
30.7992
36.4447
-16.5145
-32.5668
-34.6214
-0.982212
23.1591
-11.793
-26.4757
-24.415
-0.639078
5.71187
-4.90124
-3.54649
1.65855
-0.814032
2.4306
16.7858
22.9324
27.7018
-1.13527
10.2983
24.3435
40.8467
59.212
-1.3112
53.0471
13.817
39.3355
16.3512
2.37427
-4.67785
6.28759
6.45373
-22.9458
-22.4847
-22.8287
-22.5567
-23.2409
-22.7034
-23.1597
-22.8188
-8.06391
-7.61021
-8.27605
-7.89832
-8.29721
-7.87827
-8.52712
-8.1681
10.7819
11.1125
10.452
10.7568
10.4868
10.7906
10.1642
10.4478
-3.41373
43.8791
7.95246
54.6576
103.298
72.7997
137.406
14.2866
74.6079
32.3079
101.22
0.955236
39.309
18.7694
25.3934
64.1569
31.3031
87.4907
94.526
86.9593
69.3071
111.19
76.9032
85.6063
95.7388
98.0793
75.3903
83.8862
90.0727
93.2302
71.7252
163.089
205.18
189.727
229.55
173.198
208.144
196.366
228.571
140.073
131.343
150.658
136.181
141.372
133.674
150.87
138.235
63.4212
70.9693
76.4982
80.4892
64.6367
71.0395
74.0075
77.8181
86.4915
67.1078
130.363
118.488
93.1113
85.1781
134.196
127.691
172.828
197.563
194.697
218.638
172.89
188.331
192.205
206.428
186.377
175.527
191.372
178.653
182.428
172.708
188.97
176.628
-0.41504
-9.66748
32.5893
29.4584
37.7099
32.8075
31.6029
28.9992
36.314
32.0431
1.87653
-10.2357
-15.7
38.9626
29.4361
47.3906
35.2332
32.6078
24.964
40.2253
30.0294
-2.00822
-37.8959
-37.6027
-37.9463
-37.7191
-38.1682
-37.8794
-38.2106
-37.9873
-29.5627
27.1844
83.1141
135.149
83.6768
113.401
58.6991
120.292
81.7392
143.004
23.5935
60.1546
114.342
53.5964
100.125
99.0611
154.872
115.498
149.249
30.4545
52.6288
116.155
81.755
154.811
85.8714
128.048
100.303
157.852
41.9012
104.368
178.298
111.719
181.919
99.3259
161.921
79.2834
134.366
193.203
257.252
175.294
249.199
215.298
271.865
213.613
275.325
201.755
191.947
207.885
195.546
204.603
196.141
211.55
199.832
149.82
237.133
127.108
203.214
200.437
279.712
179.595
257.641
222.256
228.749
285.383
235.146
298.42
239.151
282.208
246.983
295.428
218.49
227.231
305.388
202.269
282.43
236.893
308.439
201.039
283.027
241.714
125.972
122.901
131.172
126.349
128.791
125.46
134.136
129.032
91.5063
90.4818
94.094
92.3926
92.0242
90.1133
95.6913
93.0137
150.487
109.54
107.073
109.47
106.575
111.434
108.732
111.767
108.577
182.792
175.537
188.631
181.351
181.015
174.109
188.854
181.67
118.073
70.2701
157.642
119.316
136.084
86.7299
177.176
137.029
176.509
156.759
144.517
153.048
141.555
157.36
144.439
152.227
140.301
-18.9695
-31.6691
-11.1571
-28.7858
-16.5927
-17.3687
-15.0319
-17.3531
-17.8304
-18.7484
-16.5014
-18.8606
-35.9895
-7.85171
-18.6836
-7.84568
-19.6653
-11.7855
-21.63
-12.1919
-22.8568
-33.9566
-53.9995
29.7192
68.5034
69.8397
72.107
35.3985
106.57
116.972
56.191
52.3431
9.49445
72.0207
26.9625
48.3742
7.77884
13.0363
11.2491
7.35275
-12.2328
35.1053
104.569
145.675
54.7523
77.5966
61.8404
114.291
50.3307
81.5164
23.6057
10.2347
5.01147
-2.82024
-25.8902
21.2308
39.7056
-1.44594
8.51142
96.3405
157.842
67.7817
100.041
136.081
212.54
81.9223
143.083
170.961
168.952
129.683
139.156
206.869
192.486
167.772
166.736
67.9486
91.419
28.5193
45.1128
62.7894
109.06
21.0719
56.9034
82.7743
77.7982
45.9332
52.8962
94.673
85.7395
59.4704
63.4216
161.605
224.07
107.413
160.525
150.604
219.329
101.804
160.473
210.9
201.518
178.799
182.202
202.111
198.139
174.741
181.571
59.36
90.1795
29.5648
50.7637
51.9655
94.5807
25.4705
57.9445
103.941
101.075
71.0359
80.4539
101.234
101.067
75.2323
84.3075
130.164
126.312
122.621
121.039
138.666
133.29
133.576
129.644
87.5913
79.5369
56.201
142.099
117.731
112.702
114.359
109.49
117.236
112.705
114.202
109.812
89.5066
65.1777
-3.52749
-23.9818
-4.72549
-24.4077
-0.808616
-4.53408
-0.234948
-4.38877
-3.1496
-6.28269
-2.75616
-6.27716
-29.9556
-14.8479
-31.5292
-65.1015
5.97591
10.8603
-0.0601545
63.4205
12.4146
23.7335
8.76672
4.04141
34.2182
20.3352
27.3363
31.1149
50.7846
58.6357
30.5388
50.377
48.5027
71.5652
35.5776
21.8853
13.2763
47.1392
20.9542
8.58005
4.29835
11.4981
4.58353
5.51441
2.91751
7.28063
3.1476
-37.3195
-65.0132
-2.5153
29.4368
3.22829
2.22836
10.8679
-16.6826
5.79532
24.4466
28.5108
48.8393
-17.6357
11.5122
33.1957
61.9629
6.27269
34.5362
44.4175
21.2823
22.5167
63.0199
33.1717
45.8679
31.9511
-6.61154
-14.3842
-13.1959
-16.8386
-9.25993
-15.0586
-8.67679
-15.3637
-39.5733
-55.6037
-3.70873
19.2946
-1.36013
2.43187
5.43815
14.2482
3.82166
-0.756882
29.8444
24.9073
50.8249
34.0842
43.2916
40.6433
38.3384
44.7808
-13.5907
-14.5019
-11.108
-14.3169
-4.18329
-10.8091
-0.855112
-9.23274
-33.3691
-36.9269
-1.59353
21.1383
-6.88997
-6.39828
-3.60891
-1.21119
1.19592
15.3078
25.5712
29.2756
0.533704
-5.9598
0.228898
-12.0899
-5.93009
-13.356
-2.59643
-16.0917
-6.61726
20.7149
21.2945
20.0065
20.5902
20.7332
21.0902
19.9919
20.4101
35.1273
52.5233
-1.6505
5.91507
-1.11704
-3.241
-1.37258
-5.61535
-3.72653
6.32341
-30.1522
-5.63879
0.733025
25.2968
-0.786987
36.4914
35.8234
77.6674
85.8144
88.7155
87.0859
87.5532
80.4652
85.485
79.5226
82.8292
12.6996
36.7692
35.2138
54.1446
43.9656
89.2061
47.5685
93.8784
53.0195
50.175
75.8202
77.8054
98.9998
91.8341
125.668
121.707
25.7353
75.6522
77.9719
131.282
95.7576
125.346
144.237
176.629
37.5724
28.5546
90.767
69.0747
53.5731
42.2496
104.932
81.1251
89.3967
143.385
72.4075
139.451
137.175
172.752
107.87
162.078
129.524
113.2
159.933
144.547
146.548
126.803
169.567
150.439
-31.9783
-30.2991
-31.9174
-30.8639
-32.0059
-30.5548
-32.2089
-31.2303
-31.9975
-29.4173
-29.8287
-33.9539
-32.6409
-25.3919
-24.0784
-24.0707
-24.2351
-27.4885
-26.3691
-25.5349
-25.9023
-29.5664
-15.8109
-15.4481
-16.0388
-15.723
-16.0582
-15.7592
-16.2525
-15.9965
2.66271
2.93307
2.36202
2.61481
2.30506
2.53835
2.04187
2.25642
-0.348619
-31.9164
10.8012
45.3605
31.9507
-20.6088
13.3462
18.6977
23.4921
26.2772
30.8414
8.88841
16.6423
-12.4404
20.089
10.2291
25.927
26.8187
129.215
24.1761
132.731
78.7393
109.248
77.918
132.394
-1.8464
29.026
0.923719
46.1585
105.002
108.457
103.306
147.906
137.294
142.639
137.814
166.713
159.782
146.662
147.494
163.758
157.704
139.192
144.189
150.858
150.605
179.86
163.878
197.829
182.032
180.986
172.99
189.471
180.121
95.7964
152.578
91.7368
140.834
104.505
153.178
85.0043
128.443
175.426
165.895
178.721
178.211
172.481
160.211
161.548
159.952
95.8494
101.108
102.971
104.598
91.8629
97.4662
96.1513
99.3951
169.249
170.924
161.39
161.855
135.116
139.619
123.245
126.776
-26.5549
-29.5799
-23.31
-28.3348
-30.6387
-32.9683
-27.2362
-31.5075
-44.1827
0.874714
-6.06684
8.77554
-1.88254
-3.2626
-9.18719
3.44569
-5.59094
-27.6815
-27.1002
-25.4285
-25.7817
-28.591
-28.0128
-26.7904
-27.024
-33.2457
-35.3261
-29.6739
-33.6536
-34.3847
-36.5924
-30.6698
-34.5705
-44.7875
-13.3107
-18.7482
-7.63111
-15.3703
-14.6601
-19.6403
-10.8028
-17.4029
-37.2104
-53.1642
-54.2565
-53.3493
-54.5604
-53.8282
-55.0614
-53.8857
-55.218
-40.4705
26.1653
95.5692
149.762
127.991
164.625
123.886
137.693
175.19
164.487
32.7456
112.905
167.644
54.6154
111.61
175.382
173.157
78.8684
109.733
19.2891
59.4644
24.9924
50.1225
227.859
247.053
242.786
263.569
217.25
232.887
231.283
244.118
211.134
236.401
284.064
194.412
259.634
225.899
261.774
178.654
232.779
217.185
163.851
165.458
175.705
172.104
139.45
150.245
136.467
147.842
167.837
167.465
168.312
168.341
162.366
162.67
161.352
162.246
171.935
177.917
126.162
150.616
123.228
144.496
81.3218
116.222
159.464
157
143.17
145.119
140.837
142.228
122.69
128.841
154.533
125.48
207.826
189.987
145.619
114.287
199.499
182.198
121.266
75.5241
178.667
132.506
111.017
62.7474
171.807
122.364
175.23
176.105
130.248
149.286
111.51
171.016
122.921
143.627
105.945
129.366
103.78
172.306
160.274
74.8745
47.9662
113.197
97.1483
106.718
61.6983
154.762
109.02
55.7359
20.4025
94.5906
58.4207
157.831
153.411
128.068
122.285
102.488
92.3883
82.1049
73.0579
145.815
103.26
113.808
81.0785
86.2888
50.7695
62.3988
33.9828
-48.6629
-55.7054
-47.6033
-56.6432
-51.6012
-58.1927
-50.7601
-59.141
-62.7972
-42.5433
-52.3698
-43.33
-53.3295
-45.8672
-54.8291
-46.784
-55.8534
-61.3044
-53.654
-54.4066
-52.7998
-54.5249
-54.8956
-55.1958
-54.3321
-55.3111
-66.3771
-50.14
-52.2256
-50.2025
-52.3906
-51.9192
-53.0571
-52.0507
-53.2174
-66.1656
-70.7688
35.963
41.4046
86.164
63.3898
76.7116
48.7527
63.0244
76.9966
52.9647
26.5164
15.7112
33.1183
5.04559
30.6765
3.75135
137.616
196.025
96.0604
154.29
113.134
165.493
73.8412
129.909
174.769
170.776
159.59
162.071
161.032
163.24
147.104
154.856
62.2758
85.0476
61.7223
91.0062
26.1229
66.0098
28.898
64.0955
3.66385
46.8621
102.204
103.914
92.644
98.1223
89.4214
95.0131
82.0896
89.8958
32.2097
51.4998
127.789
109.464
99.256
103.853
95.1318
105.121
95.4319
98.2616
90.2406
72.5838
50.087
82.9508
82.4065
74.7646
74.9162
69.1243
69.4409
62.7357
63.5812
82.7936
56.6476
55.1819
33.0336
42.6535
17.0378
24.1365
2.83935
36.0586
27.8613
26.7499
26.4829
26.1098
24.595
23.8478
24.154
23.8868
-35.9601
-39.4795
-35.3436
-39.3017
-38.0752
-41.0961
-37.6696
-41.0454
-62.1464
-48.1802
-62.9087
-58.6808
-68.6271
-60.4481
-70.3268
-87.1278
15.5245
34.1673
15.6972
36.3966
26.0343
17.8213
24.7
15.365
24.1367
21.7459
27.0453
24.085
20.9835
19.2005
23.3118
21.1106
23.0588
16.1996
11.0311
2.06262
10.5537
8.02416
15.0715
5.03623
-64.7672
-66.3458
-64.7035
-66.4891
-65.2348
-66.5406
-65.1455
-66.5869
-87.6876
12.5669
-18.9571
18.274
24.9398
1.55117
50.1115
11.3654
76.0236
17.7484
88.7693
34.118
31.3071
-3.25946
-0.352384
56.225
64.8714
-2.24537
16.0154
56.0178
93.6308
17.1757
56.0587
16.2607
61.7193
14.7119
53.5012
4.36464
34.1396
112.62
97.1901
107.826
85.7865
102.212
121.599
100.378
114.081
-9.60806
28.0649
13.5397
58.2936
4.96119
32.5326
40.589
82.6445
23.9038
18.3835
54.4841
39.5305
30.1807
22.9002
71.2928
50.0698
-4.62502
42.4015
23.2848
77.7017
48.01
98.4988
86.2633
127.076
65.2063
73.6393
93.205
96.4997
128.005
124.563
159.201
153.45
27.4088
51.9294
71.6776
100.502
47.0061
73.7536
97.0211
122.968
59.8267
60.5299
104.537
96.7597
74.3274
71.1431
118.223
106.429
128.618
190.603
156.749
217.447
174.813
223.064
192.921
260.432
206.097
202.026
246.905
239.617
229.813
224.351
280.192
269.68
24.294
3.13983
72.5654
58.6478
88.1285
73.5191
111.027
85.2024
131.689
105.024
20.4004
57.6288
57.0241
79.6403
68.1097
63.5727
62.5013
83.811
73.2628
23.9837
177.624
134.304
213.275
164.342
197.548
148.24
241.568
189.861
59.4067
48.2831
68.5334
51.3793
63.2316
52.1246
73.7866
55.3009
-42.7213
-44.7266
-42.3178
-44.8103
-42.8404
-44.6038
-42.1891
-44.4736
-72.4253
14.477
61.4556
12.0704
0.726216
-2.91652
71.3933
14.8994
21.4745
-7.98096
8.62499
-4.21161
-26.4663
35.2765
33.8888
10.8229
-21.1142
63.6151
4.31355
38.7841
85.8676
57.9129
38.5832
54.2649
85.7004
79.112
55.6536
70.8879
-5.8824
16.4393
2.40487
32.2127
21.5571
53.2111
21.5848
40.1354
39.1279
33.9482
37.8809
53.164
46.669
33.1199
37.2627
23.2505
46.2547
86.2378
25.4352
56.8999
80.8266
155.935
56.0012
117.009
98.8864
93.8489
75.8299
80.3472
177.97
157.123
143.29
138.935
64.927
73.7069
152.23
206.585
85.5019
155.52
178.384
238.844
110.924
174.03
232.236
235.821
180.696
195.864
277.788
274.462
221.555
235.234
28.414
102.486
-5.41331
40.4356
31.677
116.269
-8.50506
46.7383
135.024
132.447
66.3434
75.7408
166.886
166.835
89.9974
106.857
84.9887
76.5423
77.6325
73.9469
134.563
111.01
126.434
108.85
31.9405
64.9571
24.2106
215.144
174.438
187.296
160.629
252.292
204.354
223.619
187.256
78.5464
58.8539
79.5621
58.5998
86.6237
62.998
89.4736
63.5146
123.968
104.899
79.9111
76.2186
147.031
121.726
100.76
90.2379
43.1107
-27.0775
-30.0307
-26.3611
-30.2413
-26.6301
-29.4416
-25.8005
-29.464
-44.4423
2.29347
11.1109
-3.85282
15.7208
11.5808
-20.4982
4.59085
-20.9038
30.4592
33.2837
48.739
39.8553
28.3842
33.8496
30.3331
33.3834
-0.236828
-2.10784
2.04628
-1.04879
-0.888372
-2.78169
-0.0299519
-2.10675
-6.3224
-5.87088
0.110421
4.94517
14.6342
26.6195
28.5667
1.25633
13.6418
13.7587
9.41235
11.0883
10.3389
10.2981
10.4664
9.99591
21.3838
34.4084
50.4288
-1.99645
18.304
-2.473
20.2288
-0.451352
51.6966
-0.954584
27.6037
-66.9442
-43.2241
-56.8154
-42.4908
-57.9863
-37.4164
-47.5713
-35.1354
-29.2927
-23.9051
-25.6307
-0.777772
-10.8565
-15.0677
-18.0754
7.12163
-3.96708
-26.3193
-21.9669
-17.687
-17.0791
-20.9056
-18.9411
-12.4306
-13.6816
-4.87621
-20.9681
-1.03887
-10.7532
-33.3707
-33.7049
-33.1809
-33.6881
-33.9314
-35.2633
-32.7651
-34.3896
-19.1517
-18.9185
-19.2739
-19.0914
-19.5097
-19.3434
-19.526
-19.4286
-1.34296
-1.14659
-1.55078
-1.37909
-1.81218
-1.64936
-1.94611
-1.81832
-2.51546
29.9491
4.99382
20.0078
-3.47231
73.582
101.2
72.0373
67.8128
71.749
75.7286
84.7969
66.5429
1.3122
16.6572
-15.5552
7.54373
-12.0757
20.2677
-17.5312
-18.4566
-21.8752
-14.023
-11.0082
-13.9602
-11.1302
-15.1439
-11.4703
-15.1014
-12.0594
-5.34991
-7.40304
0.959529
-2.23884
-0.837753
-4.22175
4.33637
0.212851
-6.56883
-7.50089
-6.80861
-5.24139
-5.45662
-8.84407
-7.88115
-8.44189
-8.03552
-5.91733
-9.48721
-30.5484
-19.5946
-69.0639
-69.9841
-68.468
-69.676
-68.3608
-70.2074
-67.8969
-69.7249
-63.4258
-47.1925
13.6134
24.88
24.5794
13.149
9.07931
26.0389
11.8028
-0.221637
6.54343
-23.7433
-11.9508
-50.7186
-21.1949
16.583
19.171
4.87607
29.5463
10.8918
-36.9414
-19.8078
11
-0.645158
53.169
50.8842
46.6019
45.7231
35.9035
38.0652
20.7041
26.4621
62.5009
58.294
51.5589
44.7231
4.45616
-9.86123
1.26253
-9.02063
26.5926
30.7256
-2.91363
10.0882
-3.71265
8.2353
-24.6675
-8.18936
16.0794
13.4435
0.537754
2.80613
-0.731601
1.44227
-13.3006
-7.73742
-59.8393
-69.9675
-80.1107
-86.6152
-74.5598
-77.2054
-97.4662
-96.3853
-71.3221
-125.294
-131.969
-143.619
-145.246
-138.851
-141.557
-147.993
-150.045
-111.101
-106.74
-121.861
-115.266
-117.575
-111.987
-126.255
-119.954
-52.7715
-60.1557
-52.9753
-60.1095
-56.173
-61.5386
-58.9252
-63.5644
-74.1008
-74.3664
-73.3154
-73.8279
-75.7255
-75.6682
-75.8358
-75.8012
-58.0541
-63.4079
-63.1958
-67.0402
-64.1196
-68.0633
-69.6077
-72.0419
-73.6111
-74.2488
-73.7334
-74.3228
-76.5477
-76.4858
-76.672
-76.5956
-85.1549
-85.0214
-97.126
-90.5936
-94.689
-94.603
-94.7
-94.6225
-94.84
-94.8154
-94.8485
-94.8176
-82.3272
30.9132
13.4038
31.1302
16.8537
26.0844
27.2532
18.7308
14.7509
15.6393
35.1233
22.4618
29.8901
24.7315
28.0499
23.6488
-1.26583
4.61005
-8.90282
0.506535
-2.24967
0.510714
-3.58665
0.322839
-21.0926
-16.7497
-25.8695
-21.2968
-28.9562
-24.0327
-30.5885
-26.8803
25.8613
-2.20515
-115.702
-114.733
-104.659
-105.929
-111.033
-114.315
-99.4718
-102.945
-110.637
-110.079
-108.866
-108.585
-114.035
-113.842
-111.331
-111.827
2.23936
1.58751
5.46246
4.75114
6.98256
4.48526
8.19574
6.55396
-53.0997
-54.5376
-51.158
-52.4658
-53.4122
-55.5108
-51.8875
-53.6837
-62.889
-64.1093
-65.6942
-66.3785
-68.6859
-69.2749
-71.0277
-71.5267
-71.3042
-59.7803
-60.5133
-58.3596
-59.3619
-61.9465
-63.0153
-60.8084
-62.0935
-70.4834
-91.1505
-83.3071
-83.0386
-82.4533
-103.326
-101.135
27.7224
27.3032
6.17017
37.0617
27.7983
32.1204
-7.37632
34.1809
28.64
-14.8066
-24.2755
13.5948
-2.40709
-30.8044
-44.6969
10.5135
-5.58592
-86.9939
-88.1886
-86.7429
-88.0797
-86.8726
-88.0277
-86.6159
-87.8026
-99.9051
19.5342
59.8762
55.4953
105.488
109.809
116.678
133.156
55.0375
131.834
98.4281
137.588
33.0594
80.6686
40.2294
74.846
122.258
96.6532
138.471
80.5843
140.275
99.0119
162.393
79.4872
94.8763
119.072
128.938
100.958
105.944
121.787
128.292
92.935
91.6768
119.447
111.094
98.515
96.3096
118.436
109.617
185.886
225.867
206.963
267.9
190.902
224.679
213.597
263.443
231.475
220.027
279.677
267.533
229.838
209.549
274.849
260.143
92.7768
94.4053
92.7393
116.257
111.587
93.5501
92.5934
112.467
109.26
191.091
224.115
213.24
262.308
190.805
209.399
221.712
261.081
236.542
232.174
270.821
266.621
234.985
237.133
267.806
266.082
77.6242
75.8116
92.9384
85.8673
80.6886
78.6532
93.0124
88.4381
32.331
202.205
164.644
246.221
208.23
198.475
177.141
247.247
222.715
74.5543
65.2613
84.9004
67.8412
76.7865
67.0458
86.4911
69.4541
90.069
89.1696
101.684
97.2604
90.8619
89.9899
100.577
97.1372
47.2582
216.252
179.001
265.481
230.575
212.406
178.499
260.587
225.544
82.9654
75.0153
91.0452
76.1741
83.4977
76.2688
90.4176
77.4416
-19.1153
-57.6416
4.52217
-37.336
-7.2225
-45.2696
13.8794
-26.5893
-79.1931
37.6381
99.2379
88.5035
60.636
34.5808
86.2865
104.284
27.9861
50.1312
27.7939
26.1871
-16.0668
16.3079
-36.1883