# vtk DataFile Version 3.0
Gravity inversion using rectangular prisms
ASCII
DATASET UNSTRUCTURED_GRID

POINTS	6317	double
0	0	0
0	0	200
0	0	400
0	0	600
0	0	700
0	0	800
0	0	1000
0	100	600
0	100	700
0	100	800
0	200	0
0	200	200
0	200	400
0	200	600
0	200	700
0	200	800
0	200	1000
0	400	0
0	400	200
0	400	400
0	400	600
0	400	800
0	400	1000
0	600	0
0	600	200
0	600	400
0	600	600
0	600	800
0	600	1000
0	800	0
0	800	200
0	800	400
0	800	600
0	800	800
0	800	1000
0	1000	0
0	1000	200
0	1000	400
0	1000	600
0	1000	800
0	1000	1000
0	1200	0
0	1200	200
0	1200	400
0	1200	600
0	1200	800
0	1200	1000
0	1400	0
0	1400	200
0	1400	400
0	1400	600
0	1400	800
0	1400	1000
0	1600	0
0	1600	200
0	1600	400
0	1600	600
0	1600	800
0	1600	1000
0	1800	0
0	1800	200
0	1800	400
0	1800	600
0	1800	800
0	1800	1000
0	2000	0
0	2000	200
0	2000	400
0	2000	600
0	2000	800
0	2000	1000
100	0	600
100	0	700
100	0	800
100	100	600
100	100	700
100	100	800
100	200	600
100	200	700
100	200	800
200	0	0
200	0	200
200	0	400
200	0	500
200	0	600
200	0	700
200	0	800
200	0	900
200	0	1000
200	100	400
200	100	500
200	100	600
200	100	700
200	100	800
200	100	900
200	100	1000
200	200	0
200	200	200
200	200	400
200	200	500
200	200	600
200	200	700
200	200	800
200	200	900
200	200	1000
200	300	600
200	300	700
200	300	800
200	300	900
200	300	1000
200	400	0
200	400	200
200	400	300
200	400	400
200	400	600
200	400	700
200	400	800
200	400	900
200	400	1000
200	500	200
200	500	300
200	500	400
200	600	0
200	600	100
200	600	200
200	600	300
200	600	400
200	600	600
200	600	800
200	600	1000
200	700	0
200	700	100
200	700	200
200	700	300
200	700	400
200	800	0
200	800	100
200	800	200
200	800	300
200	800	400
200	800	600
200	800	800
200	800	1000
200	1000	0
200	1000	200
200	1000	400
200	1000	600
200	1000	800
200	1000	1000
200	1200	0
200	1200	200
200	1200	400
200	1200	600
200	1200	800
200	1200	1000
200	1400	0
200	1400	200
200	1400	400
200	1400	600
200	1400	800
200	1400	1000
200	1600	0
200	1600	200
200	1600	400
200	1600	600
200	1600	800
200	1600	1000
200	1800	0
200	1800	200
200	1800	400
200	1800	600
200	1800	800
200	1800	1000
200	2000	0
200	2000	200
200	2000	400
200	2000	600
200	2000	800
200	2000	1000
300	0	400
300	0	500
300	0	600
300	0	700
300	0	800
300	0	900
300	0	1000
300	100	400
300	100	500
300	100	600
300	100	700
300	100	800
300	100	900
300	100	1000
300	200	400
300	200	500
300	200	600
300	200	700
300	200	800
300	200	900
300	200	1000
300	300	600
300	300	700
300	300	800
300	300	900
300	300	1000
300	400	200
300	400	300
300	400	400
300	400	600
300	400	700
300	400	800
300	400	900
300	400	1000
300	500	200
300	500	300
300	500	400
300	600	0
300	600	100
300	600	200
300	600	300
300	600	400
300	700	0
300	700	100
300	700	200
300	700	300
300	700	400
300	800	0
300	800	100
300	800	200
300	800	300
300	800	400
400	0	0
400	0	200
400	0	300
400	0	400
400	0	500
400	0	600
400	0	700
400	0	800
400	0	900
400	0	1000
400	100	200
400	100	300
400	100	400
400	100	500
400	100	600
400	100	700
400	100	800
400	100	900
400	100	1000
400	200	0
400	200	200
400	200	300
400	200	400
400	200	500
400	200	600
400	200	700
400	200	800
400	200	900
400	200	1000
400	300	200
400	300	300
400	300	400
400	300	600
400	300	700
400	300	800
400	300	900
400	300	1000
400	400	0
400	400	100
400	400	200
400	400	300
400	400	400
400	400	500
400	400	600
400	400	700
400	400	800
400	400	900
400	400	1000
400	500	0
400	500	100
400	500	200
400	500	300
400	500	400
400	500	500
400	500	600
400	500	700
400	500	800
400	600	0
400	600	100
400	600	150
400	600	200
400	600	300
400	600	400
400	600	500
400	600	600
400	600	700
400	600	800
400	600	1000
400	650	100
400	650	150
400	650	200
400	700	0
400	700	100
400	700	150
400	700	200
400	700	300
400	700	400
400	700	500
400	700	600
400	800	0
400	800	100
400	800	200
400	800	300
400	800	400
400	800	500
400	800	600
400	800	800
400	800	1000
400	900	0
400	900	100
400	900	200
400	900	300
400	900	400
400	900	500
400	900	600
400	1000	0
400	1000	100
400	1000	200
400	1000	300
400	1000	400
400	1000	500
400	1000	600
400	1000	800
400	1000	1000
400	1200	0
400	1200	200
400	1200	400
400	1200	600
400	1200	800
400	1200	1000
400	1400	0
400	1400	200
400	1400	400
400	1400	600
400	1400	800
400	1400	1000
400	1600	0
400	1600	200
400	1600	400
400	1600	600
400	1600	800
400	1600	1000
400	1800	0
400	1800	200
400	1800	400
400	1800	600
400	1800	800
400	1800	1000
400	2000	0
400	2000	200
400	2000	400
400	2000	600
400	2000	800
400	2000	1000
450	600	100
450	600	150
450	600	200
450	650	100
450	650	150
450	650	200
450	700	100
450	700	150
450	700	200
500	0	200
500	0	300
500	0	400
500	0	500
500	0	600
500	0	700
500	0	800
500	0	900
500	0	1000
500	100	200
500	100	300
500	100	400
500	100	500
500	100	600
500	100	700
500	100	800
500	100	900
500	100	1000
500	200	200
500	200	300
500	200	400
500	200	500
500	200	600
500	200	700
500	200	800
500	200	900
500	200	1000
500	300	200
500	300	300
500	300	400
500	300	600
500	300	700
500	300	800
500	300	900
500	300	1000
500	400	0
500	400	100
500	400	200
500	400	300
500	400	400
500	400	500
500	400	600
500	400	700
500	400	800
500	400	900
500	400	1000
500	500	0
500	500	100
500	500	200
500	500	250
500	500	300
500	500	400
500	500	500
500	500	600
500	500	700
500	500	800
500	550	200
500	550	250
500	550	300
500	600	0
500	600	50
500	600	100
500	600	150
500	600	200
500	600	250
500	600	300
500	600	350
500	600	400
500	600	450
500	600	500
500	600	600
500	600	700
500	600	800
500	650	0
500	650	50
500	650	100
500	650	150
500	650	200
500	650	250
500	650	300
500	650	350
500	650	400
500	650	450
500	650	500
500	700	0
500	700	50
500	700	100
500	700	150
500	700	200
500	700	250
500	700	300
500	700	350
500	700	400
500	700	450
500	700	500
500	700	600
500	750	100
500	750	150
500	750	200
500	750	250
500	750	300
500	750	350
500	750	400
500	750	450
500	750	500
500	800	0
500	800	100
500	800	150
500	800	200
500	800	250
500	800	300
500	800	350
500	800	400
500	800	450
500	800	500
500	800	600
500	850	200
500	850	250
500	850	300
500	850	350
500	850	400
500	900	0
500	900	100
500	900	200
500	900	250
500	900	300
500	900	350
500	900	400
500	900	500
500	900	600
500	1000	0
500	1000	100
500	1000	200
500	1000	300
500	1000	400
500	1000	500
500	1000	600
550	500	200
550	500	250
550	500	300
550	550	200
550	550	250
550	550	300
550	600	0
550	600	50
550	600	100
550	600	150
550	600	200
550	600	250
550	600	300
550	600	350
550	600	400
550	600	450
550	600	500
550	650	0
550	650	50
550	650	100
550	650	150
550	650	200
550	650	250
550	650	300
550	650	350
550	650	400
550	650	450
550	650	500
550	700	0
550	700	50
550	700	100
550	700	150
550	700	200
550	700	250
550	700	300
550	700	350
550	700	400
550	700	450
550	700	500
550	750	100
550	750	150
550	750	200
550	750	250
550	750	300
550	750	350
550	750	400
550	750	450
550	750	500
550	800	100
550	800	150
550	800	200
550	800	250
550	800	300
550	800	350
550	800	400
550	800	450
550	800	500
550	850	200
550	850	250
550	850	300
550	850	350
550	850	400
550	900	200
550	900	250
550	900	300
550	900	350
550	900	400
600	0	0
600	0	200
600	0	300
600	0	400
600	0	500
600	0	600
600	0	700
600	0	800
600	0	900
600	0	1000
600	100	200
600	100	300
600	100	400
600	100	500
600	100	600
600	100	700
600	100	800
600	100	900
600	100	1000
600	200	0
600	200	100
600	200	200
600	200	300
600	200	400
600	200	500
600	200	600
600	200	700
600	200	800
600	200	900
600	200	1000
600	300	0
600	300	100
600	300	200
600	300	300
600	300	400
600	300	500
600	300	600
600	300	700
600	300	800
600	300	900
600	300	1000
600	400	0
600	400	100
600	400	150
600	400	200
600	400	300
600	400	400
600	400	450
600	400	500
600	400	600
600	400	700
600	400	800
600	400	900
600	400	1000
600	450	100
600	450	150
600	450	200
600	450	400
600	450	450
600	450	500
600	500	0
600	500	100
600	500	150
600	500	200
600	500	250
600	500	300
600	500	350
600	500	400
600	500	450
600	500	500
600	500	550
600	500	600
600	500	650
600	500	700
600	500	800
600	500	900
600	500	1000
600	550	100
600	550	150
600	550	200
600	550	250
600	550	300
600	550	350
600	550	400
600	550	450
600	550	500
600	550	550
600	550	600
600	550	650
600	550	700
600	600	0
600	600	50
600	600	100
600	600	150
600	600	200
600	600	250
600	600	300
600	600	350
600	600	400
600	600	450
600	600	500
600	600	550
600	600	600
600	600	650
600	600	700
600	600	800
600	600	900
600	600	1000
600	650	0
600	650	50
600	650	100
600	650	150
600	650	200
600	650	250
600	650	300
600	650	350
600	650	400
600	650	450
600	650	500
600	700	0
600	700	50
600	700	100
600	700	150
600	700	200
600	700	250
600	700	300
600	700	350
600	700	400
600	700	450
600	700	500
600	700	600
600	700	700
600	700	800
600	700	900
600	700	1000
600	750	100
600	750	150
600	750	200
600	750	250
600	750	300
600	750	350
600	750	400
600	750	450
600	750	500
600	800	0
600	800	100
600	800	150
600	800	200
600	800	250
600	800	300
600	800	350
600	800	400
600	800	450
600	800	500
600	800	600
600	800	700
600	800	800
600	800	900
600	800	1000
600	850	100
600	850	150
600	850	200
600	850	250
600	850	300
600	850	350
600	850	400
600	900	0
600	900	100
600	900	150
600	900	200
600	900	250
600	900	300
600	900	350
600	900	400
600	900	500
600	900	600
600	900	700
600	900	800
600	900	900
600	900	1000
600	950	100
600	950	150
600	950	200
600	1000	0
600	1000	100
600	1000	150
600	1000	200
600	1000	300
600	1000	400
600	1000	500
600	1000	600
600	1000	700
600	1000	800
600	1000	900
600	1000	1000
600	1100	0
600	1100	100
600	1100	200
600	1100	300
600	1100	400
600	1100	500
600	1100	600
600	1200	0
600	1200	100
600	1200	200
600	1200	300
600	1200	400
600	1200	500
600	1200	600
600	1200	800
600	1200	1000
600	1300	200
600	1300	300
600	1300	400
600	1300	500
600	1300	600
600	1400	0
600	1400	200
600	1400	300
600	1400	400
600	1400	500
600	1400	600
600	1400	800
600	1400	1000
600	1500	200
600	1500	300
600	1500	400
600	1500	500
600	1500	600
600	1600	0
600	1600	200
600	1600	300
600	1600	400
600	1600	500
600	1600	600
600	1600	800
600	1600	1000
600	1800	0
600	1800	200
600	1800	400
600	1800	600
600	1800	800
600	1800	1000
600	2000	0
600	2000	200
600	2000	400
600	2000	600
600	2000	800
600	2000	1000
650	400	100
650	400	150
650	400	200
650	400	400
650	400	450
650	400	500
650	450	100
650	450	150
[...]
CELL_DATA	4427
SCALARS density double 1
LOOKUP_TABLE table0
2.47688
-25.6167
-17.037
21.0816
19.2641
23.3326
21.0758
18.2428
17.4806
20.5475
19.1629
57.3546
1.40705
2.55198
-5.64698
11.9462
35.9623
1.28965
-9.93999
5.97843
12.6946
21.368
0.904613
3.6028
7.59828
19.6728
17.5971
1.75681
-5.20491
6.70242
20.7594
21.685
0.572244
7.3265
10.7485
18.4604
27.3431
0.882418
2.28576
8.8745
17.245
26.327
1.36352
-6.88696
6.12306
17.4792
22.7281
0.855119
0.72096
5.57621
13.801
14.3604
0.908653
-8.41045
0.29419
21.2927
26.5283
3.19115
-16.1626
-8.16103
-10.9493
-1.63085
-7.2888
-16.9131
-13.9837
-9.86455
-10.5325
42.7538
48.4426
43.6426
47.6199
45.1693
50.6137
46.0174
49.8864
74.1478
74.4369
75.1817
75.2311
74.2184
74.5926
75.0742
75.2471
1.84498
7.9724
-14.9964
15.3701
14.5272
16.5237
15.5772
13.9418
13.7723
15.1221
14.6984
38.1619
37.9674
39.0002
38.6551
37.784
37.7576
38.4884
38.3248
2.64526
-27.0677
-6.61343
-15.6875
-6.26452
-7.44339
-3.73671
-0.687068
-4.08678
-8.01641
2.9217
15.1306
-0.948133
16.1466
1.10517
18.595
-1.39179
27.1859
3.85987
-0.0827144
6.34297
6.07087
5.46147
6.69021
10.5732
5.411
4.70815
5.38744
3.53399
1.74833
6.45976
4.96554
-3.65139
-2.68563
1.31447
0.113415
3.70294
7.25744
-6.64864
-3.44343
-4.50981
2.3793
4.19913
-6.05821
-6.52601
-2.9251
1.81315
6.44033
-3.87066
-2.30069
3.37161
1.58545
-4.0055
-3.95692
4.58497
9.92041
0.797313
-5.28582
1.81499
13.5663
19.4517
2.2907
-64.9536
-35.5513
-15.7063
-20.4555
-47.4871
-28.4528
-14.6424
-19.1334
16.5523
21.0401
22.2096
23.6937
20.031
23.0294
23.5451
24.7211
51.0504
52.1371
52.501
53.0614
52.3567
53.0476
53.3129
53.6818
74.2549
74.5529
74.9077
75.0576
74.9456
75.077
75.4117
75.4533
1.28171
14.0263
0.66138
8.55263
2.59736
7.34821
-1.30879
4.09098
0.46848
-3.84042
8.26348
8.34096
9.25591
9.06563
8.56611
8.6347
9.26187
9.14371
26.5371
26.5361
27.0812
26.9704
26.8064
26.7593
27.1938
27.0767
0.63276
9.61952
-0.0356405
28.6143
5.61676
11.0992
15.3397
29.216
32.6995
43.8001
47.5794
46.3295
48.668
45.0317
56.7294
75.6015
79.898
93.1395
83.9553
91.7907
116.758
121.899
49.3328
18.453
17.3448
19.4967
17.6925
18.2632
17.4381
20.0642
18.2322
-6.29677
-6.68784
-5.72579
-6.1682
-6.55063
-6.81831
-6.15385
-6.44862
-3.90355
5.84866
9.05592
61.9172
-8.91377
27.7084
6.62847
61.0965
-6.32582
31.0974
13.2543
14.9034
26.5427
28.4916
17.0451
14.7168
25.6253
39.7951
24.8397
43.4355
34.3486
34.7048
25.78
33.9199
51.1539
70.0437
52.6319
78.2583
28.3887
19.8611
35.6814
20.4572
26.2765
49.9748
85.4503
36.8679
64.4795
66.0965
56.0952
56.6023
57.0209
99.3205
114.872
95.8413
116.498
118.822
133.554
128.361
141.194
102.82
92.1889
115.104
98.9732
122.18
103.565
136.309
111.197
86.6081
109.43
52.0019
88.6557
132.005
139.034
103.644
125.989
108.628
97.8819
83.3812
81.6883
134.982
113.92
114.303
101.978
39.2156
36.905
39.7501
36.8715
57.3299
47.8123
61.9389
51.0077
62.4305
52.7461
67.8965
56.5758
37.7791
65.4085
52.489
64.8572
52.1282
71.8511
58.3477
73.0703
59.1463
38.1037
0.16365
-12.5116
13.4544
4.14614
12.1686
4.43449
15.9967
38.1461
19.5931
27.2988
22.7567
40.3732
0.517252
35.3912
38.1355
64.9878
17.0222
39.1451
95.0984
119.423
62.9728
85.0446
80.0203
72.1581
59.5736
57.0243
106.839
88.2551
86.0196
75.611
39.94
42.2145
21.9904
21.3299
23.0212
22.036
21.5491
20.6475
22.0627
21.1035
-3.17695
-11.1591
7.96103
9.80344
-6.66481
-14.9335
-18.1907
4.42515
16.0923
-12.1883
-21.795
-24.7481
2.56624
17.5425
-10.7477
-15.2701
-15.8463
1.61879
-0.0429345
-7.60244
1.63016
8.11722
-0.299819
8.4572
16.6037
18.7017
20.4055
-0.877924
13.9953
26.7922
28.069
28.477
28.9334
29.3933
29.6653
29.9661
30.001
46.9843
47.222
47.5194
47.6088
48.0595
47.9841
48.3045
48.1938
67.0917
67.0443
67.4025
67.316
67.6627
67.4773
67.857
67.6674
-2.64164
27.8097
3.96302
10.1844
-3.37489
13.2482
4.5702
6.98196
28.7792
8.23229
36.6556
35.0808
19.3574
-3.37992
52.7546
34.2275
-21.2041
-17.1727
-16.4376
-16.3783
-22.5371
-18.2132
-17.332
-19.4329
-14.2238
-16.6465
-17.4603
-18.8808
-15.3988
-17.0236
-18.737
-0.865606
0.682847
-1.64611
-0.337015
-1.45272
-0.0356246
-2.52479
-1.19475
22.1954
23.7039
21.0143
22.422
21.4339
22.8801
20.2056
21.6038
11.8225
3.51121
53.2208
28.9812
73.5738
9.06651
69.0072
24.4547
82.9194
31.0794
31.0051
81.407
51.5967
107.053
34.4094
96.7862
62.9859
128.498
15.5749
48.359
43.5742
70.2051
95.0012
99.3128
134.172
107.175
95.0393
126.336
126.761
66.9151
47.888
116.683
133.147
134.462
154.708
134.084
149.056
150.781
170.401
111.028
106.625
121.307
112.386
115.108
110.179
124.626
115.718
74.8362
37.6664
122.891
131.787
145.109
148.203
120.565
128.286
135.15
139.109
112.271
66.4764
64.8236
71.6622
69.816
68.0356
66.7587
72.6509
71.0997
29.5887
107.975
105.603
110.796
107.827
111.859
109.077
116.175
112.392
72.2143
66.4204
74.239
67.7779
73.579
68.6013
75.7127
69.9487
69.1207
70.2329
78.8659
77.3044
58.5662
61.1046
63.051
63.9606
10.7573
8.39958
13.8463
10.9294
9.98153
8.18806
12.0591
9.96667
117.278
103.34
138.392
123.378
76.822
67.5426
97.6975
86.5796
73.3969
68.4836
79.661
71.0664
61.4678
60.4249
65.7656
61.8881
-27.6278
-26.7755
-21.7207
-25.9914
-19.6313
-24.4715
-22.9175
-26.5991
-21.2399
-25.4318
-27.1113
-28.8602
-27.7954
-24.5113
-27.7327
-23.1137
-26.8463
-25.1852
-27.8744
-24.1214
-27.2228
-28.1845
-25.2453
-25.4378
-25.0505
-25.2616
-25.1584
-25.3643
-25.042
-25.2511
51.2312
56.1886
93.8054
63.1269
112.005
81.6947
139.852
106.289
159.59
47.2754
64.3355
125.078
61.4388
93.0101
118.754
165.467
97.5733
147.744
39.1218
77.7553
51.1496
101.179
46.7897
104.18
48.7013
126.596
90.1455
147.994
113.009
167.86
100.267
159.16
106.72
169.621
69.3636
128.503
176.312
108.779
157.24
121.271
163.065
96.1419
132.063
201.882
152.302
136.929
187.54
106.294
153.338
187.662
214.779
163.163
200.112
153.473
177.315
194.616
201.804
209.693
170.631
189.146
190.869
200.409
152.866
196.964
218.988
179.838
211.568
191.958
215.833
172.27
206.783
157.059
123.125
118.683
122.98
118.006
127.784
123.408
128.654
123.618
60.6719
117.029
110.019
113.392
106.627
122.563
115.654
120.415
113.54
64.8774
123.502
57.5383
52.5604
58.7481
53.1222
55.5752
51.4934
57.3042
52.2401
120.479
77.274
72.1701
78.6023
72.7977
76.1964
71.7748
77.1992
72.1599
-6.72569
-9.04509
-1.77967
-6.75618
-12.9933
-13.406
-8.80753
-12.2123
-40.4856
-40.7542
-40.2585
-40.5571
-40.579
-40.822
-40.4339
-40.6888
46.9972
75.0409
78.4568
61.0192
40.1733
95.4279
114.251
55.9864
60.8312
23.3269
38.3222
7.91024
28.1531
-0.764388
18.3826
7.56443
11.5926
-11.8325
54.8294
105.765
137.948
69.0021
85.3112
90.5118
115.897
64.901
72.9718
32.2365
45.0498
105.423
133.438
78.2209
112.285
148.334
147.046
111.775
129.077
124.217
114.355
97.4108
98.3859
147.377
126.439
121.131
113.254
67.6071
57.9773
162.311
160.995
125.244
136.266
152.196
154.899
122.312
131.985
148.062
125.973
124.779
114.885
138.332
122.292
118.638
112.617
68.8702
66.0904
73.7427
53.2266
53.1995
44.9457
71.1418
51.2887
50.5512
41.9693
-5.21242
-5.80386
-5.05457
-5.87757
-6.81121
-6.90053
-6.85608
-7.05468
-35.5503
-35.8764
-35.2877
-35.6681
-35.7974
-36.0674
-35.6211
-35.9197
13.3218
29.4326
8.7039
53.4612
21.9449
8.22059
15.4265
-1.32196
24.8243
21.8079
29.7096
23.1779
18.3758
19.7252
16.2297
19.3693
7.64587
6.62796
8.23746
6.93618
6.2097
5.76459
6.24059
5.83878
-18.9692
-29.4564
8.48634
17.0795
21.4876
6.05972
20.8166
16.2245
15.3443
36.071
25.0417
1.3482
-2.42802
2.38774
-1.81904
-3.47909
-5.16463
1.38045
-4.26813
-24.7009
-31.3078
3.4747
10.7367
25.9728
23.1788
30.7584
44.2044
35.5514
35.1579
34.1266
-7.55129
-9.72775
-6.88857
-9.42878
-6.56908
-10.4538
-6.84991
-9.91781
-20.733
-25.5584
0.96405
3.05207
-6.03194
-2.76015
6.60932
-0.304144
0.389589
10.9259
20.6775
19.647
0.939012
-5.12209
2.59771
-10.0856
4.61264
-19.9782
2.94948
-6.46542
-3.64183
-24.3564
-19.7531
-13.8812
-13.8403
-37.6788
-31.1999
8.56286
9.07275
4.67821
5.74646
6.831
7.4955
2.3909
4.02548
28.7132
29.6358
25.8408
27.1044
27.3081
28.3178
24.4206
25.815
41.2539
41.0226
41.3368
41.1272
41.4976
41.22
41.5192
41.2813
61.014
60.7493
61.1361
60.8866
61.1776
60.8837
61.2674
60.9959
-3.37911
33.5268
2.54246
17.3854
-9.96954
-27.3021
-3.13353
1.45429
-0.738848
-23.7513
-19.6893
38.8085
73.3973
109.543
34.6733
105.051
190.333
185.456
86.3989
156.675
2.83009
40.1571
49.7619
-15.7882
88.5804
89.1209
87.8599
89.4466
85.6974
87.6727
86.4235
88.4528
30.0417
28.6863
31.7408
29.9604
28.6369
28.2756
29.9795
29.1731
26.7887
31.0663
30.0885
29.8697
18.6386
23.3126
25.5235
23.7564
-31.2153
47.3143
-5.02887
-40.51
-39.1296
-41.3547
-40.1961
-42.0117
-40.4568
-42.7872
-41.4762
-14.8415
-13.4106
-15.9984
-14.5988
-16.0626
-14.5925
-17.1732
-15.7306
10.6151
12.0631
9.39216
10.815
9.4781
10.9452
8.31128
9.75669
16.1143
35.3822
40.2861
82.1964
95.1636
95.557
109.016
55.9754
89.7854
72.8121
100.669
18.2127
28.812
28.1802
39.5071
101.469
73.8839
67.0616
81.1527
68.6768
69.151
63.752
74.7969
64.8662
119.52
103.76
67.3047
123.882
86.7366
88.1723
53.211
106.896
69.8613
78.3365
32.294
31.3994
35.01
32.6982
31.7407
30.98
33.4378
31.6392
104.455
109.44
103.297
109.93
102.287
107.554
97.1815
105.237
88.7598
51.8729
95.3915
60.6556
62.1125
25.6135
68.7153
32.775
-29.6306
-32.9824
-24.8824
-30.8362
-40.8416
-42.7156
-37.437
-41.6408
-51.0216
-11.0299
-19.4677
7.54119
-8.20814
-25.9545
-30.9695
-14.4362
-24.7955
-40.5459
-41.8228
-36.9971
-38.9472
-42.9331
-43.7982
-40.6648
-41.8223
-53.7931
-53.2935
-43.7181
-46.0468
-40.2592
-43.8501
-45.1295
-46.6746
-42.7179
-45.01
-51.9921
-56.8961
-57.07
-56.798
-56.9793
-56.8818
-57.054
-56.8301
-56.9988
-41.211
-41.4198
-41.1361
-41.3401
-41.1886
-41.4027
-41.1389
-41.3439
64.4374
94.0659
65.8386
121.338
162.067
98.2377
142.357
129.33
130.503
90.7699
114.631
50.9214
64.375
46.7794
65.2757
151.47
154.071
162.599
163.073
136.995
144.121
137.781
145.542
128.798
121.939
130.434
126.63
120.518
115.394
120.614
118.137
168.456
179.228
154.576
167.867
140.205
147.548
126.427
137.681
135.686
125.492
134.396
124.09
122.896
119.486
119.608
117.11
101.715
100.397
100.307
98.1642
88.3046
92.1766
82.5495
86.9906
57.2987
51.6062
56.7263
51.7875
49.6348
46.0331
47.9629
45.4704
92.445
90.1148
82.8847
85.2106
67.073
72.2481
57.232
65.9539
54.8311
81.129
57.2652
129.98
107.021
52.2191
32.2383
98.225
78.4778
44.4738
41.13
58.6522
48.3538
34.8182
34.3179
46.4674
40.2407
101.791
66.1583
59.6561
65.7882
58.6025
62.3412
57.021
61.7043
55.7079
34.6299
32.1738
39.1902
35.5982
33.188
31.6232
34.9725
32.9367
-24.4343
-26.8147
-21.9958
-25.0425
-26.338
-28.4901
-24.8395
-27.3896
47.0096
7.17625
4.3718
8.60208
5.31029
3.59019
1.3638
4.16372
1.6164
-44.1773
-47.3386
-42.6891
-46.5227
-45.5315
-48.2895
-44.461
-47.7653
-50.2301
-37.3659
-42.1162
-35.955
-41.4602
-39.3376
-43.6386
-38.3546
-43.3196
-48.8368
-55.9999
-53.7708
-53.8108
-53.3455
-66.137
55.0519
52.472
35.3962
42.6322
44.9471
35.7739
35.6269
39.5574
127.645
146.103
89.5258
115.627
95.477
117.225
76.2751
102.98
86.7522
50.1266
52.4503
55.6167
42.1548
29.3204
32.9375
64.7635
45.9917
41.8192
44.3008
39.9922
42.9597
39.5389
41.0631
37.5407
36.3441
19.0226
30.7937
-8.68485
18.6433
-5.55402
-44.9221
-44.8413
-44.7975
-44.7823
-46.7059
-46.1322
-46.6575
-46.1717
-67.9018
24.6243
20.9145
25.5808
20.4063
25.0014
25.7986
25.2223
30.0555
27.0169
6.56864
6.70462
6.66592
6.83988
4.79912
4.97855
6.01161
5.42104
-32.4062
-32.6993
-32.1175
-32.492
-32.8045
-32.9856
-32.6391
-32.8611
-52.9367
11.8001
6.89534
15.7557
76.0047
31.4734
55.8083
26.7257
75.2357
103.99
84.3443
114.786
72.3802
112.004
85.6138
120.676
42.72
32.2473
48.1834
38.1769
84.1064
79.8131
101.837
105.809
133.886
146.858
60.6112
56.4304
81.3289
76.4192
97.8131
92.2928
126.664
117.249
26.7059
39.5433
81.6511
93.8831
57.4248
63.8199
111.249
122.984
53.6042
41.189
90.1992
86.6857
68.0207
57.753
107.997
106.108
143.381
157.866
174.933
189.12
161.174
183.767
187.765
215.491
161.249
160.462
191.818
193.597
191.629
189.033
229.711
227.717
20.9693
21.6646
45.8249
34.8376
65.9969
55.4925
86.5054
69.8099
103.905
86.7843
21.7455
35.0731
29.6285
80.0122
65.3219
49.2248
41.4444
96.1616
80.1412
31.0104
147.359
122.595
177.856
148.295
171.434
141.622
208.451
172.049
67.3922
31.7702
83.6538
41.7891
82.2394
42.729
99.5227
53.781
-18.767
-19.21
-17.8751
-18.8907
-20.0873
-20.3386
-18.7684
-19.8327
-35.5562
9.54315
74.3963
3.81351
31.6576
33.6936
84.0023
8.65338
37.2611
86.5078
84.6427
75.7857
77.636
131.769
147.14
109.321
124.877
86.2537
79.0877
83.4194
76.2762
134.214
121.774
125.115
115.288
66.6152
69.7391
167.721
193.251
136.986
168.093
182.748
217.014
152.435
185.11
195.713
196.241
172.744
168.53
229.869
233.575
193.037
198.715
84.6146
114.752
39.0057
56.896
90.057
125.414
47.3629
69.0939
119.415
109.333
71.9224
69.3863
133.671
128.484
82.1728
81.0232
61.7234
46.0126
57.0851
44.303
134.571
99.7989
118.853
90.35
31.1018
40.4246
16.2273
179.056
151.388
153.418
132.112
212.845
178.737
183.472
152.725
88.3496
46.8534
81.2331
45.9765
104.269
58.2469
93.9031
56.3439
117.917
85.3313
62.5192
47.3004
144.37
105.968
79.4157
58.8156
32.5925
-12.6897
-14.4315
-13.0243
-14.9684
-13.9422
-15.2601
-13.7379
-15.5829
-28.2061
1.28477
5.17492
-5.73268
29.792
7.90249
3.05738
1.42026
2.08193
35.829
25.9645
49.8889
20.7853
38.3181
23.6704
20.9406
4.27265
5.09919
2.47478
6.24906
3.70245
3.61727
1.70599
2.70378
2.277
-4.30682
4.51436
0.139611
5.81699
11.4134
22.4086
17.0646
3.46415
5.99989
6.02744
1.07903
3.83956
4.62718
8.74469
0.505706
12.8777
12.8796
12.5325
12.6902
12.6046
12.5527
12.5465
12.5555
28.1608
29.2842
25.5321
26.987
26.5028
27.6246
24.3191
25.6642
46.1521
47.3773
44.0765
45.454
44.542
45.8417
42.7244
44.1189
59.3312
59.0464
59.4202
59.1556
59.1577
58.9125
59.2704
59.0367
4.39689
1.87096
0.63817
60.3784
27.6698
-5.3761
-6.7277
59.7872
22.5176
12.2493
6.15226
13.9395
34.8886
39.1548
44.1507
41.4838
36.6337
43.7729
36.2367
42.6352
18.1221
14.1472
11.7329
-49.5218
-5.70333
-35.1042
-25.1964
-23.0993
-24.9498
-23.2112
-22.051
-21.4995
-22.4147
-21.3934
-70.1157
-69.7841
-70.0988
-69.7289
-69.5226
-69.8769
-69.0991
-69.4367
-31.2823
-58.2044
-47.0816
-45.4929
-47.6684
-46.3659
-47.9283
-46.5227
-48.2984
-47.1724
-21.1847
-19.7
-22.1701
-20.7328
-22.306
-20.8539
-23.0977
-21.7256
4.57845
6.07029
3.5081
4.96506
3.42114
4.92687
2.48297
3.93064
19.0503
23.4822
25.5146
15.4753
17.4399
24.2124
13.3416
0.643169
68.2002
65.5397
67.8283
66.73
69.7848
66.1615
68.4495
66.4916
-1.47976
-2.64561
0.831919
-1.45209
-1.26927
-2.59782
0.398675
-1.88009
41.0955
55.0922
26.9833
36.0533
5.60334
15.4325
-6.83126
-3.79865
47.9106
14.9174
40.3305
14.2716
14.5537
-13.5932
4.79027
-16.6627
10.9585
7.05559
12.4091
8.64557
9.5958
7.03632
10.7543
8.06891
-54.81
-20.7247
-66.6515
-69.127
-67.6322
-70.2326
-67.8306
-69.8679
-69.8354
-71.7202
-81.8844
-81.7121
-73.4229
-75.3136
-71.1766
-73.7002
-74.0938
-75.6146
-72.3887
-74.2641
-80.5671
-82.6785
-82.446
-83.4147
-82.6299
-71.4466
-71.6191
-71.4064
-71.5747
-71.5172
-71.7045
-71.462
-71.6438
-50.3158
-50.5249
-50.2677
-50.4681
-50.3971
-50.5977
-50.3336
-50.5275
30.7772
27.1652
34.7212
19.9391
11.7648
-7.71658
13.6167
15.3468
-6.78261
-11.8788
-12.6045
-21.5983
-24.6167
-18.276
-18.3322
30.8253
30.2709
29.5114
27.4855
19.5232
20.3973
17.1994
16.3258
6.09039
-1.80416
0.767882
-4.1683
-15.4999
-20.3133
-22.5973
-24.5044
12.093
9.64127
4.37355
5.19127
-1.4878
-3.63209
-7.29539
-7.53683
-6.82004
-8.5514
-10.1296
-10.2127
-34.4817
-33.54
-37.3379
-35.7844
-34.8622
-56.6614
-44.9565
-67.1782
-59.2226
-76.0276
-72.8739
-89.5094
-107.068
-115.788
-111.192
-118.713
-121.145
-127.678
-128.268
-133.172
-58.0878
-81.6451
-59.9371
-83.4169
-83.4033
-103.828
-82.8026
-104.905
-117.99
-123.083
-118.289
-121.883
-136.374
-139.343
-135.964
-138.202
-1.8466
-2.36052
-0.238206
-0.83485
-4.99513
-4.82181
-4.64268
-4.18931
-50.0605
4.21204
3.9741
3.40576
3.41574
-1.64433
-0.516666
-3.38963
-1.86303
-28.6569
-30.8102
-28.2573
-30.6285
-30.77
-32.7194
-30.8375
-32.9261
-87.0079
-87.0534
-87.6766
-87.2702
-89.4492
-89.1725
-90.9232
-89.9917
-105.943
-88.4848
-87.4009
-89.0444
-87.7118
-92.5996
-90.868
-93.5703
-91.6682
-99.083
-94.5833
-94.7651
-94.5511
-94.7219
-94.6956
-94.8512
-94.713
-94.8241
-82.9796
34.2469
19.3842
32.4602
11.468
20.8037
21.7707
24.2565
29.2465
9.14287
-7.16285
-6.48283
-6.21275
-5.82653
-16.8293
-15.4904
-14.0828
-13.7765
31.1951
9.58958
-20.9737
-63.273
14.9608
-32.5401
-49.9036
-90.3376
-18.0047
-62.6655
-102.708
-106.591
-93.5548
-100.242
-120.41
-121.759
-110.41
-114.532
15.6953
12.069
16.4974
14.8699
14.7944
11.6744
16.5049
14.7036
-49.3706
-51.7755
-46.8
-49.0509
-52.5332
-55.2315
-50.2149
-52.7267
-5.88122
-35.0192
-0.874411
-25.1403
-82.6702
-91.4803
-51.1347
-68.1769
-88.8115
-88.9648
-88.727
-88.8792
-89.0247
-89.093
-88.9917
-89.0448
-91.076
30.3958
32.3621
10.2453
37.4005
27.0003
30.1741
-30.0304
39.7181
15.176
-0.87374
-22.6488
12.5283
-13.7418
-32.589
-52.5862
9.23097
-21.8405
-61.9556
-62.0715
-61.701
-61.8772
-62.2258
-62.2371
-62.0266
-62.0995
-75.8523
21.7761
82.6729
57.8178
83.9215
121.634
100.914
139.557
74.2908
129.888
94.3205
146.886
42.6728
85.9892
50.3976
64.6608
124.735
89.6467
145.483
74.4796
132.53
93.0708
156.011
78.4293
76.2973
113.458
118.85
84.7511
79.3676
123.688
127.961
70.6123
61.2998
122.347
113.271
72.7021
63.6545
123.814
111.727
172.308
198.087
195.351
230.509
181.414
205.998
201.617
238.199
204.937
198.271
237.597
238.436
208.627
200.632
244.126
243.497
84.9951
78.3841
125.166
125.026
77.5499
72.8762
113.019
112.311
69.9712
62.274
117.823
106.58
64.1608
58.6862
106.33
98.3114
180.845
204.371
204.09
241.617
180
198.032
206.456
240.732
206.603
197.923
249.478
244.168
200.74
193.061
248.183
240.483
53.0427
45.2671
99.9718
83.2965
54.4723
47.1206
97.6626
82.3389
26.0921
182.218
148.644
222.266
181.606
182.979
150.774
225.628
183.582
83.4721
45.4467
103.698
58.7385
83.764
47.9647
104.26
61.8573
52.7786
45.6591
92.7145
79.0481
50.3695
44.7601
86.6247
76.0319
21.0563
181.701
151.031
223.798
183.695
179.477
152.43
221.316
183.886
83.4041
50.8882
104.847
65.636
86.0886
55.7857
106.458
70.0238
-23.0606
-30.7593
4.84296
-12.5414
-27.3959
-34.9009
8.85684
-13.0005
-46.708
38.5998
92.0259
123.835
73.6504
92.3717
88.1729
127.531
68.2041
84.9407
24.9566
29.6652
55.2131
92.2765
135.373
72.9361
79.3914
93.1841
151.938
75.1992
86.5326
35.3567
44.7884
23.4742
30.1502
5.68955
48.1408
17.0583
35.8733
-5.7987
197.102
229.662
156.21
191.675
199.805
238.346
154.792
191.488
224.088
90.6493
127.305
42.4765
71.7894
83.921
123.868
36.6288
69.4388
131.965
132.033
85.2749
91.9325
133.078
142.711
82.9826
97.9043
200.562
243.467
152.707
196.929
206.646
245.801
165.077
203.264
253.999
246.846
224.848
220.495
256.611
247.917
229.056
223.135
74.5969
123.785
22.6935
59.4557
86.223
130.686
20.3941
59.965
139.893
146.723
76.4329
90.1199
140.535
144.418
79.2053
90.8782
227.868
186.917
198.985
167.19
229.487
189.071
203.807
170.15
109.339
62.3285
100.184
60.758
111.2
65.3814
101.917
63.3215
121.835
102.206
84.6862
75.4252
130.903
109.153
88.264
74.6301
42.7442
229.453
189.405
203.772
169.738
228.229
189.374
202.773
169.181
112.334
68.7398
103.864
66.576
113.698
72.7577
105.142
69.7134
130.531
112.094
87.3634
75.6999
131.804
112.01
87.9735
74.9761
49.4288
-8.74914
-10.1378
-8.99513
-10.4449
-8.94313
-10.4735
-8.92873
-10.4887
-26.2568
9.35884
18.1531
0.98997
23.6199
11.8967
26.6988
4.75704
27.7944
44.6108
31.0977
13.0955
-6.89077
26.3076
54.5275
14.205
21.5072
24.2401
54.086
7.39969
17.4334
76.6117
61.0248
30.2675
17.7275
76.9873
61.5546
33.1361
22.3132
-0.706164
-13.6102
6.13232
1.73153
-6.77888
-4.13816
6.19399
2.45355
-6.33401
-2.31658
-1.01068
-2.2821
1.02498
-0.904159
14.9538
22.0051
14.9468
4.63574
14.1989
18.9277
11.7903
14.9573
14.3038
16.4337
15.4041
12.3532
11.6888
15.3148
13.7664
8.94834
16.4844
13.5818
8.72624
8.55102
13.4042
11.7353
3.0913
4.00079
9.44245
8.26471
32.197
33.3837
30.7328
31.9084
29.4795
31.1493
29.1259
30.3394
44.7729
44.641
44.9498
44.8019
44.2126
44.2027
44.4954
44.4332
62.0522
61.8674
62.2045
62.0185
61.7043
61.5909
61.9043
61.7765
14.6276
21.9687
14.7511
18.1462
9.60688
41.7409
11.2191
26.3254
-44.5304
-47.3793
-45.0207
-46.6413
-37.6372