# vtk DataFile Version 3.0
Gravity inversion using rectangular prisms
ASCII
DATASET UNSTRUCTURED_GRID

POINTS	2283	double
0	0	0
0	0	200
0	0	400
0	0	600
0	0	800
0	0	1000
0	200	0
0	200	200
0	200	400
0	200	600
0	200	800
0	200	1000
0	400	0
0	400	200
0	400	400
0	400	600
0	400	800
0	400	1000
0	600	0
0	600	200
0	600	400
0	600	600
0	600	800
0	600	1000
0	800	0
0	800	200
0	800	400
0	800	600
0	800	800
0	800	1000
0	1000	0
0	1000	200
0	1000	400
0	1000	600
0	1000	800
0	1000	1000
0	1200	0
0	1200	200
0	1200	400
0	1200	600
0	1200	800
0	1200	1000
0	1400	0
0	1400	200
0	1400	400
0	1400	600
0	1400	800
0	1400	1000
0	1600	0
0	1600	200
0	1600	400
0	1600	600
0	1600	800
0	1600	1000
0	1800	0
0	1800	200
0	1800	400
0	1800	600
0	1800	800
0	1800	1000
0	2000	0
0	2000	200
0	2000	400
0	2000	600
0	2000	800
0	2000	1000
200	0	0
200	0	200
200	0	400
200	0	600
200	0	800
200	0	1000
200	200	0
200	200	200
200	200	400
200	200	600
200	200	800
200	200	1000
200	400	0
200	400	200
200	400	400
200	400	600
200	400	800
200	400	1000
200	600	0
200	600	200
200	600	400
200	600	600
200	600	800
200	600	1000
200	800	0
200	800	200
200	800	400
200	800	600
200	800	800
200	800	1000
200	1000	0
200	1000	200
200	1000	400
200	1000	600
200	1000	800
200	1000	1000
200	1200	0
200	1200	200
200	1200	400
200	1200	600
200	1200	800
200	1200	1000
200	1400	0
200	1400	200
200	1400	400
200	1400	600
200	1400	800
200	1400	1000
200	1600	0
200	1600	200
200	1600	400
200	1600	600
200	1600	800
200	1600	1000
200	1800	0
200	1800	200
200	1800	400
200	1800	600
200	1800	800
200	1800	1000
200	2000	0
200	2000	200
200	2000	400
200	2000	600
200	2000	800
200	2000	1000
400	0	0
400	0	200
400	0	400
400	0	600
400	0	800
400	0	1000
400	200	0
400	200	200
400	200	400
400	200	600
400	200	800
400	200	1000
400	400	0
400	400	200
400	400	300
400	400	400
400	400	500
400	400	600
400	400	800
400	400	1000
400	500	200
400	500	300
400	500	400
400	500	500
400	500	600
400	600	0
400	600	200
400	600	300
400	600	400
400	600	500
400	600	600
400	600	800
400	600	1000
400	700	200
400	700	300
400	700	400
400	700	500
400	700	600
400	800	0
400	800	200
400	800	300
400	800	400
400	800	500
400	800	600
400	800	800
400	800	1000
400	1000	0
400	1000	200
400	1000	400
400	1000	600
400	1000	800
400	1000	1000
400	1200	0
400	1200	200
400	1200	400
400	1200	600
400	1200	800
400	1200	1000
400	1400	0
400	1400	200
400	1400	400
400	1400	600
400	1400	800
400	1400	1000
400	1600	0
400	1600	200
400	1600	400
400	1600	600
400	1600	800
400	1600	1000
400	1800	0
400	1800	200
400	1800	400
400	1800	600
400	1800	800
400	1800	1000
400	2000	0
400	2000	200
400	2000	400
400	2000	600
400	2000	800
400	2000	1000
500	400	200
500	400	300
500	400	400
500	400	500
500	400	600
500	500	200
500	500	300
500	500	400
500	500	500
500	500	600
500	600	200
500	600	300
500	600	400
500	600	500
500	600	600
500	700	200
500	700	300
500	700	400
500	700	500
500	700	600
500	800	200
500	800	300
500	800	400
500	800	500
500	800	600
600	0	0
600	0	200
600	0	400
600	0	600
600	0	800
600	0	1000
600	200	0
600	200	200
600	200	300
600	200	400
600	200	500
600	200	600
600	200	800
600	200	1000
600	300	200
600	300	300
600	300	400
600	300	500
600	300	600
600	400	0
600	400	100
600	400	200
600	400	300
600	400	400
600	400	500
600	400	600
600	400	700
600	400	800
600	400	1000
600	500	0
600	500	100
600	500	200
600	500	300
600	500	400
600	500	500
600	500	600
600	500	700
600	500	800
600	600	0
600	600	100
600	600	200
600	600	300
600	600	400
600	600	500
600	600	600
600	600	700
600	600	800
600	600	1000
600	700	0
600	700	100
600	700	200
600	700	300
600	700	400
600	700	500
600	700	600
600	700	700
600	700	800
600	800	0
600	800	100
600	800	200
600	800	300
600	800	400
600	800	500
600	800	600
600	800	700
600	800	800
600	800	1000
600	900	200
600	900	300
600	900	400
600	900	500
600	900	600
600	1000	0
600	1000	200
600	1000	300
600	1000	400
600	1000	500
600	1000	600
600	1000	800
600	1000	1000
600	1200	0
600	1200	200
600	1200	400
600	1200	600
600	1200	800
600	1200	1000
600	1400	0
600	1400	200
600	1400	400
600	1400	600
600	1400	800
600	1400	1000
600	1600	0
600	1600	200
600	1600	400
600	1600	600
600	1600	800
600	1600	1000
600	1800	0
600	1800	200
600	1800	400
600	1800	600
600	1800	800
600	1800	1000
600	2000	0
600	2000	200
600	2000	400
600	2000	600
600	2000	800
600	2000	1000
700	200	200
700	200	300
700	200	400
700	200	500
700	200	600
700	300	200
700	300	300
700	300	350
700	300	400
700	300	500
700	300	600
700	350	300
700	350	350
700	350	400
700	400	0
700	400	100
700	400	200
700	400	300
700	400	350
700	400	400
700	400	500
700	400	600
700	400	700
700	400	800
700	500	0
700	500	100
700	500	200
700	500	300
700	500	400
700	500	500
700	500	600
700	500	700
700	500	800
700	600	0
700	600	100
700	600	200
700	600	300
700	600	400
700	600	500
700	600	600
700	600	700
700	600	800
700	700	0
700	700	100
700	700	200
700	700	300
700	700	400
700	700	500
700	700	600
700	700	700
700	700	800
700	800	0
700	800	100
700	800	200
700	800	300
700	800	400
700	800	500
700	800	600
700	800	700
700	800	800
700	900	200
700	900	300
700	900	400
700	900	500
700	900	600
700	1000	200
700	1000	300
700	1000	400
700	1000	500
700	1000	600
750	300	300
750	300	350
750	300	400
750	350	300
750	350	350
750	350	400
750	400	300
750	400	350
750	400	400
800	0	0
800	0	200
800	0	400
800	0	600
800	0	800
800	0	1000
800	200	0
800	200	200
800	200	300
800	200	400
800	200	500
800	200	600
800	200	800
800	200	1000
800	300	200
800	300	300
800	300	350
800	300	400
800	300	500
800	300	600
800	350	300
800	350	350
800	350	400
800	400	0
800	400	100
800	400	200
800	400	300
800	400	350
800	400	400
800	400	450
800	400	500
800	400	600
800	400	700
800	400	800
800	400	1000
800	450	300
800	450	350
800	450	400
800	450	450
800	450	500
800	500	0
800	500	100
800	500	200
800	500	300
800	500	350
800	500	400
800	500	450
800	500	500
800	500	600
800	500	700
800	500	800
800	600	0
800	600	100
800	600	200
800	600	300
800	600	400
800	600	500
800	600	550
800	600	600
800	600	700
800	600	800
800	600	1000
800	650	500
800	650	550
800	650	600
800	700	0
800	700	100
800	700	200
800	700	300
800	700	400
800	700	500
800	700	550
800	700	600
800	700	700
800	700	800
800	800	0
800	800	100
800	800	200
800	800	300
800	800	400
800	800	500
800	800	600
800	800	700
800	800	800
800	800	1000
800	900	200
800	900	300
800	900	400
800	900	500
800	900	600
800	900	700
800	900	800
800	1000	0
800	1000	200
800	1000	300
800	1000	400
800	1000	500
800	1000	600
800	1000	700
800	1000	800
800	1000	1000
800	1200	0
800	1200	100
800	1200	200
800	1200	300
800	1200	400
800	1200	500
800	1200	600
800	1200	800
800	1200	1000
800	1300	0
800	1300	100
800	1300	200
800	1300	300
800	1300	400
800	1300	500
800	1300	600
800	1400	0
800	1400	100
800	1400	200
800	1400	300
800	1400	400
800	1400	500
800	1400	600
800	1400	800
800	1400	1000
800	1500	0
800	1500	100
800	1500	200
800	1500	300
800	1500	400
800	1500	500
800	1500	600
800	1600	0
800	1600	100
800	1600	200
800	1600	300
800	1600	400
800	1600	500
800	1600	600
800	1600	800
800	1600	1000
800	1800	0
800	1800	200
800	1800	400
800	1800	600
800	1800	800
800	1800	1000
800	2000	0
800	2000	200
800	2000	400
800	2000	600
800	2000	800
800	2000	1000
850	400	300
850	400	350
850	400	400
850	400	450
850	400	500
850	450	300
850	450	350
850	450	400
850	450	450
850	450	500
850	500	300
850	500	350
850	500	400
850	500	450
850	500	500
850	600	500
850	600	550
850	600	600
850	650	500
850	650	550
850	650	600
850	700	500
850	700	550
850	700	600
900	200	200
900	200	300
900	200	400
900	200	500
900	200	600
900	300	200
900	300	300
900	300	400
900	300	500
900	300	600
900	400	0
900	400	100
900	400	200
900	400	300
900	400	350
900	400	400
900	400	450
900	400	500
900	400	550
900	400	600
900	400	700
900	400	800
900	450	300
900	450	350
900	450	400
900	450	450
900	450	500
900	450	550
900	450	600
900	500	0
900	500	100
900	500	200
900	500	300
900	500	350
900	500	400
900	500	450
900	500	500
900	500	550
900	500	600
900	500	700
900	500	800
900	550	400
900	550	450
900	550	500
900	550	550
900	550	600
900	600	0
900	600	100
900	600	200
900	600	300
900	600	400
900	600	450
900	600	500
900	600	550
900	600	600
900	600	700
900	600	800
900	650	500
900	650	550
900	650	600
900	700	0
900	700	100
900	700	200
900	700	300
900	700	400
900	700	500
900	700	550
900	700	600
900	700	700
900	700	800
900	800	0
900	800	100
900	800	200
900	800	300
900	800	400
900	800	500
900	800	600
900	800	700
900	800	800
900	900	200
900	900	300
900	900	400
900	900	500
900	900	600
900	900	700
900	900	800
900	1000	200
900	1000	300
900	1000	400
900	1000	500
900	1000	600
900	1000	700
900	1000	800
900	1200	0
900	1200	100
900	1200	200
900	1200	300
900	1200	400
900	1200	500
900	1200	600
900	1300	0
900	1300	100
900	1300	200
900	1300	250
900	1300	300
900	1300	350
900	1300	400
900	1300	500
900	1300	600
900	1350	200
900	1350	250
900	1350	300
900	1350	350
900	1350	400
900	1400	0
900	1400	100
900	1400	200
900	1400	250
900	1400	300
900	1400	350
900	1400	400
900	1400	450
900	1400	500
900	1400	600
900	1450	200
900	1450	250
900	1450	300
900	1450	350
900	1450	400
900	1450	450
900	1450	500
900	1500	0
900	1500	100
900	1500	200
900	1500	250
900	1500	300
900	1500	350
900	1500	400
900	1500	450
900	1500	500
900	1500	600
900	1600	0
900	1600	100
900	1600	200
900	1600	300
900	1600	400
900	1600	500
900	1600	600
950	400	300
950	400	350
950	400	400
950	400	450
950	400	500
950	400	550
950	400	600
950	450	300
950	450	350
950	450	400
950	450	450
950	450	500
950	450	550
950	450	600
950	500	300
950	500	350
950	500	400
950	500	450
950	500	500
950	500	550
950	500	600
950	550	400
950	550	450
950	550	500
950	550	550
950	550	600
950	600	400
950	600	450
950	600	500
950	600	550
950	600	600
950	1300	200
950	1300	250
950	1300	300
950	1300	350
950	1300	400
950	1350	200
950	1350	250
950	1350	300
950	1350	350
950	1350	400
950	1400	200
950	1400	250
950	1400	300
950	1400	350
950	1400	400
950	1400	450
950	1400	500
950	1450	200
950	1450	250
950	1450	300
950	1450	350
950	1450	400
950	1450	450
950	1450	500
950	1500	200
950	1500	250
950	1500	300
950	1500	350
950	1500	400
950	1500	450
950	1500	500
1000	0	0
1000	0	200
1000	0	400
1000	0	600
1000	0	800
1000	0	1000
[...]
CELL_DATA	1459
SCALARS density double 1
LOOKUP_TABLE table0
-0.431027
5.81076
15.2729
-3.46186
-3.45836
-0.104861
-0.0583206
8.24312
-1.04139
-4.29127
-0.712748
12.0059
13.9061
5.4295
-2.4613
-0.0466867
2.53443
11.1096
11.5676
2.75705
-0.0463918
3.45774
8.01138
12.7187
7.16046
-1.70793
7.68015
14.6361
13.1787
11.0444
-0.921841
3.59676
16.1724
15.8171
12.8821
0.481437
-13.1079
9.77176
17.6574
14.1857
-0.0472851
2.60654
11.2832
19.7053
16.8999
0.310877
-10.8036
6.28741
21.3437
23.0878
-0.871196
11.1154
-17.2899
0.664057
16.8987
0.351627
0.0913118
-17.6656
-6.25054
0.81299
1.06789
-3.09281
-5.59789
-3.18675
-6.73848
1.45348
2.22637
2.53361
1.38121
-4.16284
1.27128
4.17707
-2.48251
-1.76129
-4.90713
-0.689164
15.8156
-2.63044
-6.35819
-11.0365
-1.70552
9.80219
-0.959369
-7.28211
-11.7035
-1.11865
6.86422
-0.536244
-2.49914
-5.61637
-0.179369
-4.76369
-1.6833
4.9254
3.8847
-0.237249
-3.84314
5.9118
13.9811
14.6645
-0.506661
7.89215
2.38538
19.4344
29.1873
-0.0872718
2.12888
-2.51352
-1.03884
2.43791
2.05114
51.2122
27.1603
52.4182
41.5394
42.2522
28.6138
97.0084
60.051
30.5006
26.1276
36.2141
30.1914
29.9144
25.2699
42.089
32.3637
-0.452314
-13.1576
12.4641
24.3863
52.7406
33.993
59.6414
144.851
101.567
157.769
120.88
52.1324
44.4326
55.2954
46.1064
64.8575
49.4857
72.4172
52.9807
13.5029
-13.4512
10.059
22.9064
20.6816
6.23878
-9.34944
4.22465
10.5348
-4.44866
-13.0532
-16.6897
-0.640556
28.2769
-4.35391
-19.9018
-26.4369
-2.51463
26.1641
-0.646386
-14.7213
-21.3777
-1.80642
5.99313
-0.797411
-0.882905
-1.84551
-1.43145
5.44008
14.3444
14.9225
12.6571
-0.0804114
1.21301
14.4293
23.6987
31.5252
-0.282675
-26.6368
9.77661
8.44958
48.8965
39.7954
59.2984
57.8608
-13.4398
-15.7897
6.26218
-0.51339
-10.8957
-8.71145
4.29148
2.57197
-12.6465
-12.6072
-8.57545
-10.5709
-14.5995
-13.8132
-9.94668
-10.7686
-4.32438
-0.710299
-0.265934
50.6995
16.399
99.581
3.02535
49.9306
29.0454
97.0197
57.9748
71.1557
124.335
113.266
72.4019
106.261
110.432
143.849
86.066
48.4152
121.384
88.9005
123.479
69.42
163.164
111.197
-16.3054
-18.2394
-11.7075
-16.099
-16.3818
-18.1097
-12.4727
-16.1954
-22.5941
39.7685
106.5
37.3769
155.298
34.8709
121.022
54.8467
128.986
192.064
158.358
230.51
166.163
170.117
161.718
224.172
166.656
126.193
78.9132
114.048
71.1515
155.794
101.742
134.878
94.2453
3.92794
-2.072
7.92632
0.214959
2.67002
-2.57847
5.80197
-1.1797
-30.3418
32.0139
171.531
124.534
44.5893
53.2373
183.683
122.281
60.9086
65.0067
79.5376
59.4729
59.9322
52.9183
79.1161
61.6894
58.1484
51.5621
10.9288
-26.5752
11.6361
4.88483
3.98626
-9.21458
-23.2723
4.92308
18.603
-6.12504
-21.8347
-27.5055
0.35265
30.1396
-2.9341
-19.438
-27.3136
-1.81959
13.5053
0.859487
-4.21657
-4.8486
-1.56074
-0.277115
12.4955
14.4082
11.2255
-0.453994
5.23404
14.094
22.7765
30.9454
0.266952
5.76028
6.19491
8.90222
11.6519
17.9611
14.3908
10.0691
17.9359
-21.7545
-21.0753
-16.413
-17.5035
-16.2726
-17.2053
-11.1879
-13.1746
-10.8251
-5.26419
7.59012
23.0106
23.1755
62.8445
10.3408
-14.6866
12.5197
3.11315
74.565
21.4548
40.7753
69.7082
87.8549
43.0625
65.3973
77.9633
100.272
96.7789
169.964
54.5706
58.7764
88.818
79.5989
112.13
84.6547
114.187
91.8881
125.379
67.7054
135.243
50.7777
47.5894
99.4171
96.272
67.0844
61.391
106.183
101.032
73.5787
174.577
109.457
87.1637
72.5128
116.936
102.873
98.0975
81.7597
115.581
101.141
51.5786
29.5402
77.3331
52.4108
57.8309
34.9619
76.4732
52.1459
134.108
119.153
137.024
122.634
111.367
99.2421
105.197
93.8693
94.5799
66.0387
100.905
71.778
83.0436
56.944
82.6442
57.2548
-31.8561
-33.7268
-28.7691
-32.1027
-29.5298
-31.648
-27.6186
-30.3525
-33.32
43.7701
121.66
43.7645
144.403
27.2128
46.9786
28.7816
63.8924
134.37
152.081
162.915
134.614
84.1964
96.3026
77.1438
82.2506
163.444
121.824
68.6839
120.847
71.8232
117.197
70.445
115.589
71.7331
130.116
102.291
118.442
75.4091
90.6181
62.0031
-27.9236
-32.3681
-24.1579
-30.9983
-28.2812
-32.008
-27.7378
-31.8668
-50.6458
32.1416
124.98
88.0425
47.9455
43.712
42.4802
38.3981
0.370702
10.786
77.1821
57.7389
38.6587
23.4533
54.007
28.4755
23.3541
7.42684
-17.3939
-23.8941
-17.7754
-23.2363
-21.9006
-25.5405
-23.0357
-26.1529
-54.2075
19.6219
16.3584
12.1734
-17.9649
-44.4727
7.59315
31.0149
17.9076
59.0785
30.2285
35.8792
27.1744
93.6499
40.2015
32.121
84.5375
102.906
82.9003
81.2798
143.455
152.01
149.854
170.089
154.846
156.713
176.038
206.403
131.734
176.216
176.08
181.905
181.73
150.379
206.656
199.592
29.9212
27.0407
66.0105
30.5767
50.2138
33.2172
188.482
50.8817
-14.4579
-29.114
13.6362
52.0048
5.56674
20.6068
29.2686
68.2074
11.153
33.4745
80.5037
115.844
30.7781
72.0931
145.933
179.054
131.235
162.589
172.986
211.565
157.781
194.062
188.133
193.793
178.357
180.992
210.892
222.379
208.497
205.233
71.1638
110.894
92.2017
40.8416
64.6066
30.3939
201.72
159.017
175.57
142.381
219.516
177.236
204.007
173.615
59.0391
90.3023
45.6135
-14.8043
-24.5321
1.19201
28.0213
3.57961
-4.76493
-5.93887
-0.227091
6.11331
13.9129
15.5971
10.8389
0.416711
8.15312
15.3348
23.1956
31.2164
0.798497
11.8112
1.55497
-1.9695
5.09913
25.6836
9.15532
16.9527
14.5792
-21.0969
-16.4062
-8.78652
4.57045
-23.5711
9.09795
-18.3806
-2.25002
-5.18287
-5.91177
-28.2653
28.9593
99.7854
122.151
94.4303
122.147
130.56
146.927
109.568
135
15.3799
86.2758
105.085
60.4063
77.5507
65.7086
87.1756
23.7381
44.7123
-3.76824
144.17
157.327
111.057
138.314
165.466
173.066
121.429
146.474
40.8282
41.936
19.1286
15.8159
14.6803
18.339
-15.8691
-23.9769
64.3072
90.3526
10.8267
33.94
49.2361
77.9287
-23.23
5.77653
-32.9571
-36.6967
-31.5677
-34.9602
-28.1238
-33.0645
-31.0266
-33.2909
-46.4985
-42.8996
12.7642
6.55956
19.4988
0.605952
-1.94747
-44.553
7.22593
-36.7923
5.11789
34.9131
-8.84046
5.88299
-9.45291
-1.12948
-36.9867
-30.2913
-51.7836
-54.5185
-73.874
-77.2097
6.43113
29.2272
-24.308
-11.6742
-51.3975
-26.363
-77.1736
-65.2435
-37.653
-49.7941
-47.4803
-65.0277
-75.1074
-92.9479
-80.62
-102.846
-116.269
60.148
34.9005
39.403
23.977
-30.8268
-22.803
-57.7064
-42.7554
-61.5472
-64.8862
-61.8129
-65.1167
-61.1724
-63.807
-63.3496
-64.8832
-68.8066
25.096
0.994163
27.7494
5.42745
20.0128
0.0388885
22.2169
13.9053
-14.2531
-4.73357
-9.82856
-9.50383
-84.8317
-99.9499
-36.0834
-62.8371
13.8091
2.54683
-5.32415
-13.8005
-63.0337
-54.9391
-50.711
-52.3586
-70.1444
-79.0924
26.5317
-2.06488
-12.0278
29.0449
18.996
-21.914
-43.0652
29.2502
14.5745
-14.0958
-21.0462
4.38007
-14.24
-35.5288
-43.8334
3.82978
-19.1991
-49.7618
-68.2302
25.0896
57.5297
50.3403
94.6463
31.7229
75.1195
45.9084
99.6301
90.1348
52.5466
46.0995
117.475
113.401
62.3766
55.167
121.115
107.947
129.401
196.476
179.412
213.693
149.124
190.523
199.689
225.969
177.53
190.175
223.192
231.344
195.314
203.435
222.922
261.414
99.3896
74.3662
67.6743
100.22
88.5396
67.3963
55.1365
95.157
86.2525
179.418
190.607
194.107
233.918
159.043
216.953
207.612
258.367
241.172
64.7053
24.6509
174.276
148.26
247.181
196.291
182.93
170.797
249.909
204.325
55.877
66.5235
24.8824
195.741
68.7117
-21.0835
-33.2086
3.24591
-16.9621
-26.8661
-38.5869
3.69853
-19.5711
-41.3411
35.1132
89.1828
17.5546
41.5174
44.1197
105.856
25.3785
43.3206
187.191
230.524
173.622
215.751
198.578
238.257
185.58
233.202
250.271
93.2067
124.684
211.056
248.015
192.982
236.698
223.186
265.307
200.226
238.273
247.01
103.548
160.126
148.196
107.437
96.2218
155.678
141.94
109.367
98.7511
247.426
209.17
224.347
189.949
253.618
217.651
228.441
208.254
72.958
98.0616
52.4773
220.873
87.1464
96.7882
56.5579
-7.50001
-20.4325
7.22868
38.6781
59.8418
-20.2215
11.912
37.2334
50.9005
-32.8198
-4.02054
4.33231
-2.65778
-7.55519
1.29742
-7.94541
16.4345
18.2402
11.4453
1.02978
9.90093
18.7486
25.7856
33.2392
4.05329
-31.8684
-29.5763
-19.6923
-9.97367
-2.4518
-32.1062
-10.157
-57.9383
-2.57588
-62.4856
-17.3809
-114.084
6.4737
44.4012
8.4579
11.2811
-46.683
-45.3543
-12.0939
-0.456147
-65.3411
-56.8732
-59.9813
3.29081
16.9425
-103.481
-81.3049
-52.8767
-58.9424
-57.2407
-59.8801
-50.1292
-56.9273
-55.5594
-58.266
-58.7452
-48.2458
-18.246
-35.3555
-119.681
-58.9819
-114.84
-62.1472
-125.98
-74.5172
-131.534
-14.8933
-102.9
-25.8412
-84.7675
-131.34
-95.7196
-143.261
-105.505
-151.152
-111.561
-154.82
-15.0616
-131.512
-164.437
-151.042
-172.934
-178.282
-173.005
-165.697
-179.703
-188.041
-105.777
-104.43
-114.714
-108.934
-105.967
-103.947
-114.944
-108.846
-89.1848
-77.258
8.56827
-22.141
-79.0018
-20.2374
-77.227
-45.0249
-111.495
-45.8401
-111.071
20.9018
-7.9202
-6.53851
-92.19
6.413
-4.43185
-141.322
-146.163
-50.367
-79.3587
-134.329
-147.847
-28.4115
-66.0875
-108.407
-102.78
-103.351
-101.948
-106.366
-101.527
-100.128
-100.437
-92.737
-87.1219
18.7809
-20.0147
-37.7384
38.4226
28.0316
16.0696
-14.3843
70.1934
51.2052
-40.6415
-58.9271
18.1225
-17.6096
-34.0985
-57.7083
24.5839
-15.5647
-66.5656
-74.9786
32.9654
66.276
43.1208
98.5381
25.8471
48.2656
40.7557
86.4733
99.0173
96.8536
148.742
205.684
225.114
266.237
158.761
205.138
222.945
256.609
232.146
101.675
105.028
161.808
197.213
204.068
234.834
154.748
167.59
184.313
217.429
223.815
72.5159
21.2919
193.088
80.5209
78.5165
14.777
200.443
84.0667
-29.5616
-43.6023
5.08003
-20.8604
-28.2077
-41.8406
4.52468
-20.2177
-47.5062
40.3486
113.197
17.2052
60.0861
36.797
94.9363
11.9227
67.4716
227.873
272.803
211.679
244.557
216.336
263.526
209.159
242.254
252.884
112.887
130.299
204.492
242.5
118.11
120.867
219.663
91.615
98.0091
54.6555
236.664
194.672
226.446
187.395
213.012
177.879
202.876
167.082
86.2992
88.1331
52.6784
9.88802
-9.05357
8.47055
-6.82251
7.36184
-9.62736
7.21452
-8.00414
-20.4631
5.87089
47.4984
50.8298
-30.8131
-6.95191
53.0534
45.9253
-21.9349
-4.3536
2.48921
-2.61181
-9.00111
0.506482
18.9872
22.0709
18.3621
11.8573
0.776806
16.0957
22.4146
28.9827
36.6712
3.88583
-16.1193
-29.8339
-18.5458
-6.99248
-6.35591
-12.3787
-17.5585
-53.6518
-35.0305
37.7427
-6.76219
-17.9065
-24.8833
-72.8905
-57.4441
-43.7749
-12.7441
-173.153
-8.02927
-158.689
1.92542
-82.6408
5.71032
-101.27
-138.985
-138.979
-149.545
-160.375
-77.2438
-76.629
-85.0908
-94.5066
-89.9806
-88.2958
-96.9199
-92.3009
-84.1801
-86.9401
-88.6958
-90.0002
-78.5686
-65.9766
-0.559905
-96.4049
-121.125
27.1286
-32.5821
-50.7531
-68.08
37.0654
0.125014
-74.4338
-71.3128
-67.2549
-69.4708
-66.0575
-68.6077
-60.8534
-66.9018
-72.4262
-67.9111
3.33851
69.2667
18.6759
83.9619
64.3068
55.3566
31.2189
59.0529
53.6517
-21.9338
-26.8996
-11.8972
-23.1861
-18.0039
-24.582
-15.4011
-24.3052
-50.2468
-55.3275
14.8204
62.0948
27.9944
61.0687
8.76726
38.3618
8.68132
42.5921
96.6837
92.3321
144.876
165.454
170.659
199.273
119.373
134.705
144.262
169.178
202.119
71.5416
55.8392
89.1932
97.2569
67.0157
-3.07527
156.074
134.069
177.457
154.457
132.915
114.957
152.594
134.418
57.0214
12.3783
-29.0865
66.7902
14.2519
-21.835
-35.7514
21.0693
56.0084
13.7034
76.719
15.5771
37.1388
-7.69112
60.9183
165.215
204.979
148.495
192.724
137.62
171.613
125.518
163.925
240.015
213.393
204.241
198.093
182.75
157.503
167.595
155.991
97.4285
91.9576
83.4675
81.1029
76.246
58.772
130.256
45.9651
56.4895
36.7559
47.2683
30.5212
34.8355
27.9603
-7.85932
-17.5068
4.23216
-4.5853
-3.78397
-6.33939
-7.31699
1.14833
-0.280394
14.9907
14.1785
12.9486
0.947043
-8.90236
11.892
30.5648
42.3405
0.753996
21.8881
-16.2054
-6.27658
6.03475
0.635935
1.06765
-30.579
-27.1087
-18.0266
0.854293
-9.24987
-5.6673
6.70973
-1.58968
-3.44134
-8.03142
20.627
-0.264149
-22.5231
-25.9463
-22.9844
-27.9604
-27.2448
-30.0477
-26.2418
-31.6264
-28.4112
-23.9714
-0.278741
20.3659
-11.8281
-17.8161
-17.5274
-0.0731333
26.5522
-0.916796
-6.60862
-7.85125
1.94044
12.6259
6.46466
1.09587
-0.350793
0.44752
46.6245
33.8977
41.5681
27.0038
21.2026
10.4989
19.7268
11.4223
-6.61965
-2.04511
0.275722
0.841169
-1.59471
-6.60996
0.754841
1.40598
0.85613
-0.982784
8.66732
14.8284
20.3345
-0.0977939
1.35868
9.83095
32.3163
46.8164
-0.0344751
4.84637
6.42853
14.8832
24.236
0.304311
13.2787
6.40751
10.5853
14.3305
-0.638983
16.4106
23.0795
20.3674
18.4543
-0.762627
12.3325
28.5267
30.7425
26.6324
-0.557083
4.55055
24.9436
33.5193
30.8173
-0.31981
5.01602
20.8975
28.3437
27.5725
-1.03247
6.6451
5.79366
13
15.64
-0.764031
7.37568
8.81057
16.5486
15.8479
0.15883
-7.06423
11.6267
23.1157
28.2479

