# vtk DataFile Version 3.0
Gravity inversion using rectangular prisms
ASCII
DATASET UNSTRUCTURED_GRID

POINTS	9732	double
0	0	0
0	0	200
0	0	300
0	0	400
0	0	500
0	0	600
0	0	700
0	0	800
0	0	900
0	0	1000
0	100	200
0	100	300
0	100	400
0	100	500
0	100	600
0	100	700
0	100	800
0	100	900
0	100	1000
0	200	0
0	200	200
0	200	300
0	200	400
0	200	500
0	200	600
0	200	700
0	200	800
0	200	900
0	200	1000
0	300	800
0	300	900
0	300	1000
0	400	0
0	400	200
0	400	400
0	400	600
0	400	800
0	400	900
0	400	1000
0	600	0
0	600	200
0	600	400
0	600	600
0	600	800
0	600	1000
0	800	0
0	800	200
0	800	400
0	800	600
0	800	800
0	800	1000
0	1000	0
0	1000	200
0	1000	400
0	1000	600
0	1000	800
0	1000	900
0	1000	1000
0	1100	800
0	1100	900
0	1100	1000
0	1200	0
0	1200	200
0	1200	400
0	1200	600
0	1200	800
0	1200	900
0	1200	1000
0	1400	0
0	1400	200
0	1400	400
0	1400	600
0	1400	800
0	1400	1000
0	1600	0
0	1600	200
0	1600	400
0	1600	600
0	1600	800
0	1600	1000
0	1800	0
0	1800	200
0	1800	400
0	1800	600
0	1800	800
0	1800	1000
0	2000	0
0	2000	200
0	2000	400
0	2000	600
0	2000	800
0	2000	1000
100	0	200
100	0	300
100	0	400
100	0	500
100	0	600
100	0	700
100	0	800
100	0	900
100	0	1000
100	100	200
100	100	300
100	100	400
100	100	500
100	100	600
100	100	700
100	100	800
100	100	900
100	100	1000
100	200	200
100	200	300
100	200	400
100	200	500
100	200	600
100	200	700
100	200	800
100	200	900
100	200	1000
100	300	800
100	300	900
100	300	1000
100	400	800
100	400	900
100	400	1000
100	1000	800
100	1000	900
100	1000	1000
100	1100	800
100	1100	900
100	1100	1000
100	1200	800
100	1200	900
100	1200	1000
200	0	0
200	0	200
200	0	300
200	0	400
200	0	500
200	0	600
200	0	700
200	0	800
200	0	900
200	0	1000
200	100	200
200	100	300
200	100	400
200	100	500
200	100	600
200	100	700
200	100	800
200	100	900
200	100	1000
200	200	0
200	200	200
200	200	300
200	200	400
200	200	500
200	200	600
200	200	700
200	200	800
200	200	900
200	200	1000
200	300	200
200	300	300
200	300	400
200	300	500
200	300	600
200	300	700
200	300	800
200	300	900
200	300	1000
200	400	0
200	400	200
200	400	300
200	400	400
200	400	500
200	400	600
200	400	700
200	400	800
200	400	900
200	400	1000
200	500	200
200	500	300
200	500	400
200	500	500
200	500	600
200	500	800
200	500	900
200	500	1000
200	600	0
200	600	100
200	600	200
200	600	300
200	600	400
200	600	500
200	600	600
200	600	800
200	600	900
200	600	1000
200	700	0
200	700	100
200	700	200
200	700	300
200	700	400
200	700	500
200	700	600
200	800	0
200	800	100
200	800	200
200	800	300
200	800	400
200	800	500
200	800	600
200	800	800
200	800	1000
200	900	200
200	900	300
200	900	400
200	1000	0
200	1000	200
200	1000	300
200	1000	400
200	1000	600
200	1000	800
200	1000	900
200	1000	1000
200	1100	800
200	1100	900
200	1100	1000
200	1200	0
200	1200	200
200	1200	400
200	1200	600
200	1200	800
200	1200	900
200	1200	1000
200	1300	800
200	1300	900
200	1300	1000
200	1400	0
200	1400	200
200	1400	400
200	1400	600
200	1400	800
200	1400	900
200	1400	1000
200	1600	0
200	1600	200
200	1600	400
200	1600	600
200	1600	800
200	1600	1000
200	1800	0
200	1800	200
200	1800	400
200	1800	600
200	1800	800
200	1800	1000
200	2000	0
200	2000	200
200	2000	400
200	2000	600
200	2000	800
200	2000	1000
300	0	200
300	0	300
300	0	400
300	0	500
300	0	550
300	0	600
300	0	700
300	0	800
300	0	900
300	0	1000
300	50	500
300	50	550
300	50	600
300	100	200
300	100	300
300	100	400
300	100	500
300	100	550
300	100	600
300	100	650
300	100	700
300	100	800
300	100	900
300	100	1000
300	150	500
300	150	550
300	150	600
300	150	650
300	150	700
300	200	200
300	200	300
300	200	400
300	200	500
300	200	550
300	200	600
300	200	650
300	200	700
300	200	800
300	200	900
300	200	1000
300	300	200
300	300	300
300	300	400
300	300	500
300	300	600
300	300	700
300	300	800
300	300	900
300	300	1000
300	400	200
300	400	300
300	400	400
300	400	500
300	400	600
300	400	700
300	400	800
300	400	900
300	400	1000
300	500	200
300	500	300
300	500	400
300	500	500
300	500	600
300	500	800
300	500	900
300	500	1000
300	600	0
300	600	100
300	600	200
300	600	300
300	600	400
300	600	500
300	600	600
300	600	800
300	600	900
300	600	1000
300	700	0
300	700	100
300	700	200
300	700	300
300	700	400
300	700	500
300	700	600
300	800	0
300	800	100
300	800	200
300	800	300
300	800	400
300	800	500
300	800	600
300	900	200
300	900	300
300	900	400
300	1000	200
300	1000	300
300	1000	400
300	1000	800
300	1000	900
300	1000	1000
300	1100	800
300	1100	900
300	1100	1000
300	1200	800
300	1200	900
300	1200	1000
300	1300	800
300	1300	900
300	1300	1000
300	1400	800
300	1400	900
300	1400	1000
350	0	500
350	0	550
350	0	600
350	50	500
350	50	550
350	50	600
350	100	500
350	100	550
350	100	600
350	100	650
350	100	700
350	150	500
350	150	550
350	150	600
350	150	650
350	150	700
350	200	500
350	200	550
350	200	600
350	200	650
350	200	700
400	0	0
400	0	100
400	0	200
400	0	250
400	0	300
400	0	400
400	0	500
400	0	550
400	0	600
400	0	700
400	0	800
400	0	900
400	0	1000
400	50	200
400	50	250
400	50	300
400	50	500
400	50	550
400	50	600
400	100	0
400	100	100
400	100	200
400	100	250
400	100	300
400	100	400
400	100	500
400	100	550
400	100	600
400	100	650
400	100	700
400	100	800
400	100	900
400	100	1000
400	150	500
400	150	550
400	150	600
400	150	650
400	150	700
400	200	0
400	200	100
400	200	200
400	200	300
400	200	400
400	200	500
400	200	550
400	200	600
400	200	650
400	200	700
400	200	800
400	200	900
400	200	1000
400	300	200
400	300	300
400	300	400
400	300	500
400	300	600
400	300	700
400	300	800
400	300	900
400	300	1000
400	400	0
400	400	100
400	400	200
400	400	300
400	400	350
400	400	400
400	400	500
400	400	600
400	400	700
400	400	800
400	400	900
400	400	1000
400	450	300
400	450	350
400	450	400
400	500	0
400	500	100
400	500	200
400	500	300
400	500	350
400	500	400
400	500	500
400	500	600
400	500	700
400	500	800
400	500	900
400	500	1000
400	600	0
400	600	100
400	600	150
400	600	200
400	600	250
400	600	300
400	600	350
400	600	400
400	600	500
400	600	600
400	600	700
400	600	800
400	600	900
400	600	1000
400	650	100
400	650	150
400	650	200
400	650	250
400	650	300
400	650	350
400	650	400
400	700	0
400	700	100
400	700	150
400	700	200
400	700	250
400	700	300
400	700	350
400	700	400
400	700	500
400	700	600
400	700	700
400	700	800
400	700	900
400	700	1000
400	750	200
400	750	250
400	750	300
400	750	350
400	750	400
400	800	0
400	800	100
400	800	200
400	800	250
400	800	300
400	800	350
400	800	400
400	800	500
400	800	600
400	800	700
400	800	800
400	800	900
400	800	1000
400	900	0
400	900	100
400	900	200
400	900	300
400	900	400
400	900	500
400	900	600
400	1000	0
400	1000	100
400	1000	200
400	1000	300
400	1000	400
400	1000	500
400	1000	600
400	1000	800
400	1000	900
400	1000	1000
400	1100	0
400	1100	100
400	1100	200
400	1100	300
400	1100	400
400	1100	500
400	1100	600
400	1100	800
400	1100	900
400	1100	1000
400	1200	0
400	1200	100
400	1200	200
400	1200	300
400	1200	400
400	1200	500
400	1200	600
400	1200	800
400	1200	900
400	1200	1000
400	1300	200
400	1300	300
400	1300	400
400	1300	500
400	1300	600
400	1300	800
400	1300	900
400	1300	1000
400	1400	0
400	1400	200
400	1400	300
400	1400	400
400	1400	500
400	1400	600
400	1400	800
400	1400	900
400	1400	1000
400	1500	200
400	1500	300
400	1500	400
400	1500	800
400	1500	900
400	1500	1000
400	1600	0
400	1600	200
400	1600	300
400	1600	400
400	1600	600
400	1600	800
400	1600	900
400	1600	1000
400	1800	0
400	1800	200
400	1800	400
400	1800	600
400	1800	800
400	1800	1000
400	2000	0
400	2000	200
400	2000	400
400	2000	600
400	2000	800
400	2000	1000
450	0	200
450	0	250
450	0	300
450	50	200
450	50	250
450	50	300
450	100	200
450	100	250
450	100	300
450	400	300
450	400	350
450	400	400
450	450	300
450	450	350
450	450	400
450	500	300
450	500	350
450	500	400
450	600	100
450	600	150
450	600	200
450	600	250
450	600	300
450	600	350
450	600	400
450	650	100
450	650	150
450	650	200
450	650	250
450	650	300
450	650	350
450	650	400
450	700	100
450	700	150
450	700	200
450	700	250
450	700	300
450	700	350
450	700	400
450	750	200
450	750	250
450	750	300
450	750	350
450	750	400
450	800	200
450	800	250
450	800	300
450	800	350
450	800	400
500	0	0
500	0	100
500	0	200
500	0	250
500	0	300
500	0	350
500	0	400
500	0	500
500	0	600
500	0	700
500	0	800
500	0	900
500	0	1000
500	50	200
500	50	250
500	50	300
500	50	350
500	50	400
500	100	0
500	100	100
500	100	200
500	100	250
500	100	300
500	100	350
500	100	400
500	100	500
500	100	600
500	100	700
500	100	800
500	100	900
500	100	1000
500	200	0
500	200	100
500	200	200
500	200	300
500	200	400
500	200	500
500	200	600
500	200	700
500	200	800
500	200	900
500	200	1000
500	300	200
500	300	300
500	300	400
500	300	500
500	300	600
500	300	700
500	300	800
500	300	900
500	300	1000
500	400	0
500	400	100
500	400	200
500	400	250
500	400	300
500	400	350
500	400	400
500	400	500
500	400	600
500	400	700
500	400	800
500	400	900
500	400	1000
500	450	200
500	450	250
500	450	300
500	450	350
500	450	400
500	500	0
500	500	100
500	500	150
500	500	200
500	500	250
500	500	300
500	500	350
500	500	400
500	500	450
500	500	500
500	500	600
500	500	700
500	500	800
500	500	900
500	500	1000
500	550	100
500	550	150
500	550	200
500	550	250
500	550	300
500	550	350
500	550	400
500	550	450
500	550	500
500	600	0
500	600	50
500	600	100
500	600	150
500	600	200
500	600	250
500	600	300
500	600	350
500	600	400
500	600	450
500	600	500
500	600	600
500	600	700
500	600	800
500	600	900
500	600	1000
500	650	0
500	650	50
500	650	100
500	650	150
500	650	200
500	650	250
500	650	300
500	650	350
500	650	400
500	650	450
500	650	500
500	700	0
500	700	50
500	700	100
500	700	150
500	700	200
500	700	250
500	700	300
500	700	350
500	700	400
500	700	450
500	700	500
500	700	600
500	700	700
500	700	800
500	700	900
500	700	1000
500	750	100
500	750	150
500	750	200
500	750	250
500	750	300
500	750	350
500	750	400
500	750	450
500	750	500
500	800	0
500	800	100
500	800	150
500	800	200
500	800	250
500	800	300
500	800	350
500	800	400
500	800	450
500	800	500
500	800	600
500	800	700
500	800	800
500	800	900
500	800	1000
500	850	200
500	850	250
500	850	300
500	850	350
500	850	400
500	850	450
500	850	500
500	900	0
500	900	100
500	900	200
500	900	250
500	900	300
[...]
CELL_DATA	7276
SCALARS density double 1
LOOKUP_TABLE table0
2.29675
-36.0636
-33.0817
-29.5
-32.1754
-20.018
-22.7592
-15.4672
-22.6321
-22.4921
-19.4662
-23.5585
-20.5339
-16.4668
-16.3984
-17.3232
-17.1521
18.0531
18.6038
19.1262
19.5864
17.9034
18.2971
19.3348
19.3542
55.9968
57.2488
55.2074
56.5634
57.2226
58.0315
56.6193
57.4939
1.44815
1.67639
-6.25138
11.6822
34.3079
35.4121
33.5433
34.7643
35.4319
36.1259
34.8283
35.6096
1.69766
-10.5931
5.25361
12.3456
21.2012
1.55873
3.74768
7.06649
19.2312
17.3945
2.07224
-5.80419
5.90173
20.2121
21.4124
0.735295
6.60469
9.91629
17.9309
23.5785
24.9221
23.9159
25.2452
23.9132
25.0011
23.957
25.0755
0.928763
2.04244
8.51616
16.9595
26.06
1.36029
-7.1443
6.26315
17.6057
22.7447
0.699765
1.25546
6.29643
14.3577
14.7376
0.762968
-8.0896
0.782552
21.5624
26.6507
1.75469
-6.09095
-10.5517
-8.28078
-11.6886
-12.9065
-13.4171
-15.6956
-14.3154
-6.06801
-9.19646
-1.20404
-6.41282
-14.6463
-4.79758
-0.228585
-5.86048
-0.934158
-3.55151
0.479619
-4.41789
-0.124257
-8.62461
-4.22722
4.28955
-5.46313
3.15325
-2.61031
4.85751
-3.48589
4.06867
42.6604
48.9132
42.8345
47.5245
45.6811
51.4747
38.5446
48.4914
35.2038
45.3336
41.2972
49.9714
38.4258
47.2962
50.3199
74.4177
75.1864
74.8278
75.4355
74.9148
75.6306
75.3075
75.8595
1.46715
15.0672
9.70312
11.3124
8.0795
8.92984
8.27824
11.3546
8.56841
-13.5249
-14.418
-14.2656
-14.7877
-13.786
-14.1736
-13.8297
-14.3006
15.1093
14.9667
15.5224
15.4324
14.2148
14.4964
14.9163
15.0063
38.3425
38.6257
38.4539
38.6694
38.2586
38.575
38.4272
38.6476
3.58914
-18.717
-6.52005
-8.54787
-5.63907
0.307383
-0.572112
7.00401
-0.854116
-8.50869
-8.57553
-7.99653
-8.30821
-7.23902
-7.66481
-6.83112
-7.43345
2.89673
15.0911
15.4705
14.6646
15.0928
15.3192
15.5878
14.9715
15.2715
1.43699
14.8463
2.95799
14.0786
4.02884
12.6175
6.94681
8.56032
8.56822
5.34967
7.0821
5.11774
14.8654
8.72052
7.58504
8.2718
2.45491
2.25257
2.61846
2.31144
4.19533
3.6937
4.56005
3.88675
1.70051
6.43453
5.07257
1.4495
-2.17801
8.98841
0.840676
2.64591
1.02949
5.05784
3.15913
-2.63624
1.23208
0.0852444
3.37242
8.74314
-6.35805
-3.48582
-4.27214
-4.15814
-4.04743
-4.00195
-4.61339
-4.51789
-4.59095
-4.53516
2.04025
5.04216
-5.71984
-6.43087
-2.48885
-2.29987
-1.78804
-1.71526
-3.18571
-3.03406
-2.83171
-2.7551
1.64766
6.70397
-3.52873
-2.06449
3.43822
1.55019
-3.64886
-3.50005
4.89977
10.0757
0.795825
-5.05043
1.97622
13.6235
19.4409
1.37011
-0.840875
2.22897
-2.26177
1.92804
-0.171119
1.68686
2.03594
-12.5683
-33.3367
-12.5431
-33.4772
-34.1051
-52.3051
-28.1765
-48.3152
-34.3981
-16.9092
-19.9606
-45.6334
-54.3403
-35.2379
-48.6542
-46.12
-51.6025
-33.3688
-45.0763
-38.2798
-28.7388
-36.4589
-28.2556
-35.6581
-27.7326
-33.4444
-26.9818
-15.1235
-19.0818
16.5522
21.6468
21.7354
23.9322
19.9345
23.4942
23.248
24.9729
51.5913
53.0173
52.6433
53.5619
52.855
53.8524
53.5293
54.2011
75.0731
75.6568
75.3407
75.7825
75.7626
76.153
75.9196
76.2143
2.45164
12.1471
0.719865
10.9839
3.97837
6.21532
-1.50704
5.59502
1.33548
-3.44852
-3.34247
-3.35791
-3.39993
-3.71346
-3.48531
-3.61662
-3.48705
8.85115
9.15933
9.46619
9.53554
9.03401
9.33626
9.47979
9.59268
27.3281
27.5759
27.4272
27.5727
27.537
27.7239
27.58
27.6879
3.1415
16.3244
7.05159
22.3233
9.8935
20.3994
22.1092
24.8615
33.1501
36.2834
46.1306
37.7679
46.7047
52.6714
67.24
31.8803
13.0787
13.4618
24.0086
24.0851
28.2484
29.1176
37.519
38.3147
44.462
45.0222
12.4161
26.1516
33.0412
45.0539
23.6226
37.3355
45.3205
59.6892
44.4479
43.2229
50.171
56.7322
59.8233
59.5807
67.5779
74.4455
83.0731
57.2237
41.5454
74.7935
57.3348
79.1092
59.895
102.028
80.1382
18.3549
17.0394
20.0908
17.5953
19.1341
17.5794
30.2269
22.0309
42.5423
30.2769
46.7854
37.0351
61.4387
47.137
19.0723
-5.66903
-6.12641
-5.13887
-5.70769
-6.12009
-6.34664
-5.7005
-6.05532
-3.16362
-3.02627
-3.41737
-3.28942
-3.30722
-3.17231
-3.52166
-3.40166
11.6631
18.9059
22.7348
14.229
19.1032
27.6022
34.4167
25.5683
29.8706
17.0792
22.4622
23.3105
38.6723
20.7091
37.488
28.7996
51.5092
28.4261
54.8591
49.7026
54.6681
48.8323
54.998
63.6393
72.2536
73.7902
76.8741
34.9487
46.8492
51.3542
43.6817
46.695
71.1963
76.3867
66.7509
70.4777
32.2697
27.7362
23.1784
22.5395
44.0463
45.3543
36.3404
39.3579
26.4082
26.7442
25.0012
27.6525
58.3889
57.2521
55.3743
59.594
22.9368
17.2108
24.7337
20.5566
35.1429
33.8678
31.9439
33.8476
22.2738
26.1012
20.5212
23.7557
48.6617
55.04
41.6633
47.456
60.0604
64.014
58.882
64.0476
79.918
86.3757
87.484
87.2847
71.2762
63.7326
72.379
71.2167
101.909
90.8282
104.205
101.385
57.6699
61.2211
50.9042
53.5914
85.3949
86.8209
75.1311
80.4794
70.3936
70.1882
62.4541
63.6029
98.1968
97.8233
85.8325
86.6935
38.6768
35.78
38.8895
35.3746
54.5802
43.2062
65.7572
51.8862
78.0677
62.9941
90.5173
72.1085
37.9423
64.388
52.1881
56.0424
43.7903
89.6761
72.59
79.2837
63.2129
38.2856
0.741005
0.304751
0.858013
0.260232
0.74783
0.398227
0.949802
0.379559
-11.8218
-11.8304
-11.8757
-11.9243
-12.0188
-12.0128
-12.1049
-12.1329
14.7511
20.268
12.384
19.2765
22.2651
42.9021
20.8137
26.2413
22.3735
36.6582
15.3211
28.2286
42.1156
45.4159
32.9162
34.4242
65.5143
69.9111
53.1521
54.8424
53.5983
53.8105
44.2998
44.2456
69.9907
72.3194
56.0869
57.2433
31.4299
40.0569
22.9721
20.8849
21.5086
20.2424
55.283
40.6315
44.0111
31.47
77.6271
59.2043
60.5392
47.3838
22.0163
23.3549
21.2296
-3.13747
-11.1154
7.07115
9.51389
7.09085
12.6982
11.7534
6.08712
10.0457
13.7754
12.5328
13.111
17.7503
13.6796
12.6771
12.4821
14.3858
11.635
-2.18874
-4.92137
-2.82755
-5.68762
-2.8188
-4.89596
-3.5821
-5.62215
-14.8499
-18.1281
4.75157
20.252
17.3173
18.5797
17.2043
17.1648
15.7712
18.0375
16.9253
-5.66019
-9.88688
-5.80126
-9.78337
-6.69939
-10.3483
-6.13018
-10.1615
-21.6097
-24.6217
2.88668
18.3704
19.07
19.1025
19.1736
20.8149
20.1761
21.3975
20.5338
-10.2572
-15.0384
-14.4879
-14.7299
-13.4903
-13.8388
-15.4611
-15.5661
-14.7355
-14.9332
1.652
0.562049
-7.13468
1.78396
8.14967
-0.0955788
8.26861
16.3508
18.504
20.2795
-0.897699
11.6551
13.3776
13.1913
13.5956
12.9919
13.8575
13.6442
13.8768
26.7887
28.4342
28.3319
29.1101
29.5331
30.0413
29.9586
30.2014
47.5129
47.9979
47.8239
48.149
48.558
48.6905
48.604
48.6896
67.9449
68.1343
68.0033
68.1455
68.4628
68.4968
68.4295
68.4493
-0.462483
24.1531
7.46779
10.9986
-0.259751
13.9789
6.84483
8.68935
27.9484
8.16632
36.0066
26.0538
22.1312
31.6298
26.3726
31.5804
27.9754
36.1048
31.3252
19.5231
-3.26334
35.8198
44.2171
41.4312
49.551
46.7253
50.9256
51.5421
55.738
32.5347
28.5947
36.3602
31.3583
33.155
29.8845
36.2129
31.8575
-20.8581
-16.7915
-9.70646
-14.4634
0.372661
-6.19907
-11.6708
-15.5588
-3.01723
-8.51171
-15.8669
-22.3626
-17.9662
-13.3283
-17.9416
-4.53739
-10.0822
-15.2919
-18.7336
-9.08994
-13.2402
-18.4414
-0.411695
1.34753
-1.39804
0.137794
-1.09142
0.518448
-2.30527
-0.801493
22.9001
24.611
21.4431
23.0317
22.0663
23.7108
20.6049
22.1763
17.2136
20.8894
18.2446
34.1177
41.8377
17.4766
23.9644
37.4284
51.3966
38.0742
53.9179
66.3636
73.6741
85.4019
62.7824
76.5958
84.5364
107.917
22.042
25.272
34.4953
51.9375
65.3635
18.7773
38.4347
53.3232
71.296
27.9332
62.7491
36.2381
77.9738
34.4105
74.3435
37.1225
87.388
74.888
91.9793
100.157
120.423
87.6882
93.4788
109.396
121.811
35.7389
47.4973
57.2781
70.9914
50.8511
57.2186
74.1891
80.2002
47.2054
46.7574
64.9079
60.7951
47.8333
47.3373
64.4509
59.9996
72.5225
85.0621
89.3762
105.237
89.6279
101.237
111.883
129.323
87.9217
84.7481
115.355
104.622
103.395
99.7938
131.401
120.848
57.3592
63.1774
80.21
78.9916
66.8693
70.7846
83.6233
82.77
44.1295
41.7101
58.3837
53.5026
45.5266
41.6544
58.2038
50.8186
104.855
113.847
133.621
143.42
108.512
115.782
136.88
141.974
104.083
101.664
132.834
122.564
103.698
95.2995
127.811
112.907
48.7185
48.3459
65.0858
62.835
57.2138
56.8159
73.3854
70.8331
29.1614
21.5679
38.7239
28.0654
29.2752
22.4946
37.8514
28.3843
85.868
83.3982
95.6588
89.0683
103.981
98.6508
116.465
107.578
64.8431
48.7876
69.4941
51.0205
72.3982
57.086
78.2858
59.7952
59.3945
59.6533
74.8887
72.4248
48.2085
49.2263
56.8192
55.3526
16.0303
9.18823
26.0007
16.9995
11.5667
6.41229
18.3964
12.0634
105.993
97.192
118.74
110.564
75.8657
65.1979
93.6465
81.4203
70.3121
56.8504
78.9693
60.5471
52.2334
45.1248
59.0326
47.3947
-16.1689
-20.7624
-16.0478
-22.0895
-18.888
-22.7999
-18.9466
-24.1111
-26.1441
-7.885
-20.3205
-2.57001
-16.6247
-11.0777
-22.5583
-6.22615
-19.4036
-26.4516
-28.4085
-27.3516
-13.7392
-24.2425
-9.7385
-21.6698
-17.3543
-25.8271
-14.2011
-23.8588
-27.7481
-24.4532
-24.5127
-24.4473
-24.557
-24.5406
-24.6061
-24.5919
-24.6911
58.4509
88.6622
99.7052
96.5025
107.595
104.541
118.351
116.551
130.605
57.6747
96.0306
103.912
89.6628
96.3395
119.328
131.361
113.13
124.647
42.7807
93.9467
43.1932
102.815
46.7057
102.751
47.4905
108.793
119.892
137.676
127.441
151.359
129.008
152.869
133.997
160.737
74.2749
134.063
150.037
126.044
140.811
137.97
155.613
125.809
143.576
100.728
107.487
106.761
113.434
122.801
138.471
128.204
142.326
128.829
117.028
136.628
125.11
151.497
135.588
162.924
143.022
104.776
111.151
94.2373
99.679
126.944
135.38
118.814
122.182
129.048
118.733
113.253
102.652
156.253
139.71
135.827
124.129
146.059
156.801
149.663
161.655
151.699
154.351
158.974
162.798
153.675
138.806
168.101
146.584
147.841
134.723
161.177
142.442
143.569
149.434
131.487
133.357
151.065
153.064
136.868
137.346
167.028
144.506
149.317
131.958
161.47
139.713
146.244
126.904
108.371
93.4477
111.672
92.3337
125.241
109.763
126.66
107.998
69.3752
49.4041
68.8631
47.3885
73.2626
53.5117
73.726
51.846
108.6
88.6806
94.3175
76.5507
124.026
104.171
110.934
91.6404
68.7092
47.0723
64.3469
43.4154
77.0371
54.4364
74.4071
51.8032
128.855
113.067
129.73
111.693
117.489
102.598
127.197
110.029
70.6361
50.4249
72.6391
50.3023
64.2006
46.8251
69.8973
48.5635
128.139
109.529
116.045
97.0972
124.267
108.48
112.482
96.8948
79.7344
57.3725
76.9657
54.7029
78.9108
57.4103
76.6225
54.6663
5.79273
-4.82014
9.72367
-1.69199
3.38815
-6.10179
7.11547
-3.30347
-8.74941
13.4888
0.860078
14.7408
1.34746
11.8736
-0.0738118
13.3922
0.371302
-6.45498
-2.13417
-10.4426
1.22196
-8.22054
-7.01747
-14.3324
-4.23666
-12.8588
-13.2211
7.73336
-4.87016
10.4068
-3.79223
1.78737
-10.0894
3.84043
-9.68858
-12.0077
-39.5114
-39.8747
-39.2267
-39.706
-39.9184
-40.1946
-39.7806
-40.1285
49.7511
80.2124
82.5223
58.8916
61.3217
100.069
107.167
75.592
83.6302
25.7886
39.7056
45.5704
26.0332
33.7356
50.2101
61.2578
32.5353
42.2024
57.368
111.58
121.39
86.3179
95.8939
109.169
120.765
89.5501
101.858
33.712
59.0594
63.9243
41.318
45.4983
63.8473
73.9672
45.9688
55.1189
86.1033
85.5939
71.1979
71.1358
107.576
99.1602
86.8345
84.0543
90.0387
88.5657
70.5588
69.6475
110.307
104.97
85.4446
80.7646
49.9204
55.217
34.103
41.4059
62.0637
64.0836
46.3823
47.6827
58.0036
61.4003
38.3418
40.6596
69.9693
72.8441
45.9136
49.0727
122.329
110.11
100.887
91.4731
127.122
115.248
104.554
94.5029
121.729
112.685
92.4705
85.5845
123.769
108.621
94.4324
83.7659
74.683
69.1657
56.3007
50.5592
73.7572
71.6148
58.6067
50.3571
78.894
76.489
50.5076
50.5534
78.676
74.2215
50.6702
50.722
85.4687
64.7437
65.4874
51.0234
100.135
78.4822
77.462
63.4059
53.4903
40.6782
44.8137
34.1869
62.6328
48.6659
54.5537
42.6566
50.7409
41.412
31.1524
31.0662
21.9577
47.9758
37.8698
37.6097
28.7766
103.658
81.3183
81.8737
66.0113
97.4464
78.2725
78.1533
63.8985
63.7401
45.2609
54.5336
38.3356
61.0161
42.852
51.5776
35.1813
49.5749
47.4948
37.5079
37.951
29.5627
41.7514
32.0871
32.6794
24.3046
-4.13898
-5.58342
-4.2398
-5.86685
8.56984
-3.63971
8.76563
-3.52594
1.6055
-9.65582
1.50072
-10.0063
-6.93496
-6.67099
-7.30487
-34.5624
-35.1039
-34.1308
-34.8195
-35.2204
-35.6363
-34.985
-35.4982
18.0679
10.6969
14.2224
15.3904
21.6795
27.5197
31.0003
16.936
14.7518
21.7631
19.78
22.1679
30.2314
18.7352
24.4952
23.8362
18.5494
19.9132
26.3069
10.1112
16.3635
5.73382
20.6729
21.353
17.3901
19.8203
20.5013
20.5949
15.0113
17.5009
9.4271
6.77204
7.90832
5.76665
7.92969
6.10229
6.29334
5.12909
-17.6199
-18.3755
-17.7262
-18.6066
-18.1478
-18.6655
-18.3096
-18.9171
-29.3834
8.81464
17.5928
10.9518
14.8943
17.321
13.0291
15.6593
18.3953
16.5956
17.7107
17.7469
18.1038
15.6124
15.8283
21.7829
26.3548
2.23689
-2.28594
2.66718
-2.36559
-0.801216
-4.03165
6.5586
-2.86374
-24.5813
-31.2028
4.82011
13.6736
4.96107
11.9478
15.578
17.5201
11.846
12.5377
19.0578
21.6304
20.0296
23.0417
18.9629
20.4904
17.1069
18.6172
20.1121
15.3907
18.1906
15.7921
31.5247
17.9568
26.0762
-1.47086
-8.43294
-1.72427
-8.24107
13.3404
6.27615
15.0651
10.4568
25.6986
20.877
24.2156
20.46
-6.71196
2.85484
-7.71298
-20.5723
-24.382
-24.6705
-23.0429
-23.5332
-24.8739
-25.0405
-23.7369
-24.0777
2.7647
6.54292
1.01432
10.4404
5.45499
3.99354
2.21211
13.0867
9.84085
8.10933
8.75361
4.80684
12.1578
9.94178
13.8486
7.15787
-5.70416
-2.65434
5.19406
5.82288
6.94857
7.51355
5.04943
5.7151
6.67067
7.26623
0.255046
0.27096
10.5795
20.3222
19.505
1.08833
-5.65572
3.40241
-9.83722
4.31015
-19.8578
3.16292
-5.77508
-4.09939
-19.7988
-17.44
-13.6589
-14.2466
-33.3049
-28.9514
8.50156
9.19646
4.67759
5.76536
6.90921
7.63791
2.35849
4.01661
28.9361
30.005
26.3394
27.234
24.661
25.5114
26.4116
27.1206
25.0055
25.6511
28.9343
29.6423
27.1227
27.7326
28.8071
29.4429
27.2372
27.7633
27.5243
28.6591
24.9799
25.6063
23.785
24.332
24.795
25.3905
23.7463
24.2498
27.4157
28.0361
26.0305
26.5347
27.2227
27.8388
25.9651
26.4613
41.7546
41.7044
41.6462
41.6085
41.9625
41.8594
41.7977
41.7278
61.8042
61.7513
61.7114
61.6626
61.9293
61.8402
61.8108
61.7331
-2.11852
22.8577
30.5283
21.4298
31.879
28.3334
35.0774
25.8043
36.8178
5.73563
16.0237
25.0223
12.1272
27.331
20.1559
24.8871
19.6261
28.4179
-6.72601
-15.9097
-1.42975
-0.617382
-3.12701
-16.2942
-13.5055
19.6597
65.8357
103.901
37.8077
97.8218
175.882
178.507
84.9571
149.543
3.55938
32.5468
42.5976
30.3328
40.1732
38.4677
44.4225
37.9027
42.8051
45.8264
45.1047
48.9218
47.4742
47.4328
46.9817
49.5268
48.562
-12.9712
-15.2868
-11.1825
-14.4384
-14.2755
-15.8737
-13.0713
-15.3542
75.5742
81.4504
75.9575
83.187
78.0223
82.6235
78.9899
84.2617
31.1555
25.2522
37.6989
29.2793
28.6465
24.6618
33.4873
27.4033
28.4449
29.916
33.0344
29.6436
20.7193
22.3083
28.5448
23.5863
-29.7013
-30.6093
-29.0637
-30.4737
-30.7775
-31.348
-30.2507
-31.2807
48.3964
47.1972
51.4324
49.3133
46.8915
45.7224
48.6774
46.8814
-2.94566
-4.84567
0.247816
-2.70015
-4.19972
-5.81582
-1.84876
-4.28113
-37.3069
-37.4997
-38.5896
-39.0097
-38.3279
-38.4037
-39.3776
-39.6852
-35.6901
-34.8421
-37.2946
-36.5681
-36.6072
-35.8467
-38.0058
-37.3825
-36.9945
-39.4707
-35.0969
-38.6346
-38.5383
-40.4569
-37.5991
-40.3156
-39.9725
-40.5656
-40.3169
-41.4046
-41.3717
-41.1346
-40.8367
-41.817
-41.7471
-38.3302
-37.5821
-39.5179
-38.9196
-38.823
-38.0857
-39.8827
-39.3023
-42.6994
-41.3494
-14.5004
-12.8807
-15.7947
-14.2236
-15.796
-14.1433
-17.0289
-15.4237
11.2343
12.8837
9.80275
11.399
10.0353
11.7007
8.67487
10.2909
18.4492
23.3145
44.88
49.3865
70.7071
24.1742
42.0764
41.9236
58.9278
41.2738
74.8614
85.1371
101.824
115.604
58.1348
67.9159
82.7036
93.3672
19.0513
29.8513
27.4448
47.4836
63.256
62.9843
80.6833
29.1984
47.127
44.7369
58.471
83.9025
94.3126
86.2647
97.0149
89.3126
96.7125
88.9346
98.257
70.4999
58.668
79.8742
61.5659
67.786
56.9452
75.4142
58.0473
119.22
101.828
70.3114
117.652
87.9925
90.7215
55.3907
106.169
71.2482
75.4901
76.9492
78.9897
81.082
76.2173
76.5114
77.3972
78.7797
35.9476
29.1646
44.9537
32.482
32.6005
27.0092
37.6977
27.6831
91.8112
104.859
94.0326
106.486
83.0044
96.1069
75.5838
89.6211
82.9019
47.5206
88.6657
54.3965
63.8075
27.1919
67.5346
32.9529
-19.0642
-27.8045
-10.6621
-23.2158
-34.3215
-41.2033
-28.9386
-39.1802
-50.6242
5.3153
-11.5683
31.1633
6.68291
-17.051
-29.232
1.76514
-17.6132
-29.7326
-33.4896
-16.8335
-23.3059
-40.1506
-42.2615
-31.2752
-34.7366
-48.1744
-51.8131
-45.9826
-51.2281
-50.3733
-53.4073
-49.1053
-53.3224
-53.1383
-34.0866
-43.3657
-21.0967
-34.6627
-40.5002
-46.7384
-30.9348
-40.0197
-51.6914
-56.4604
-56.5112
-56.2714
-56.4329
-56.6054
-56.6495
-56.5695
-56.6365
-40.5963
-40.6311
-40.6761
-40.7359
-40.6864
-40.7262
-40.7872
-40.8453
63.0883
119.678
145.835
130.342
151.117
108.422
128.363
120.362
137.316
65.1425
129.179
154.928
119.186
138.317
117.395
136.646
107.479
127.06
48.5492
68.4559
46.9052
94.2402
100.869
84.4591
93.4604
63.289
65.5117
57.2168
59.5401
145.874
147.803
156.139
156.084
121.415
125.353
131.819
129.821
135.797
116.744
144.645
129.164
114.183
96.4657
117.279
105.743
145.095
147.49
135.189
131.015
122.768
124.353
113.427
110.327
145.241
128.438
133.941
117.75
115.554
104.551
104.972
94.8546
100.722
102.615
100.084
99.2374
74.5437
77.2515
67.7517
67.0938
79.6892
60.0843
78.9728
63.2231
55.0667
40.8192
51.2395
41.3622
99.9129
94.9532
89.1495
83.9883
63.5369
58.9515
55.1335
49.8275
81.36
67.0844
76.6555
65.0377
47.4411
42.6427
42.4239
39.4099
83.9476
62.3808
110.059
94.6907
58.0895
37.367
88.8194
72.5745
41.0941
29.4194
61.979
41.1374
26.1452
19.2049
44.84
29.3265
113.301
98.8147
102.688
90.4893
94.2293
84.2687
86.3325
78.4857
70.6273
48.7451
68.4092
45.6666
58.1104
39.3495
56.2534
36.0034
33.3234
23.022
49.192
36.7898
25.3528
19.0381
34.0942
26.2143
-14.6137
-22.7949
-4.61855
-15.6178
-23.3993
-30.5462
-17.0434
-25.8459
56.8002
48.1299
55.9133
47.219
40.3122
34.919
38.0361
32.4579
16.5564
2.61037
19.634
4.20207
3.29953
-8.25776
5.164
-7.68549
-31.3286
-41.7379
-25.9806
-38.9198
-37.0995
-46.1023
-32.8965
-44.1177
-49.7134
-18.8056
-34.6199
-16.2097
-33.2167
-26.9734
-40.9969
-25.0938
-40.2564
-48.2289
-55.6497
-53.532
-42.9328
-50.0235
-40.7204
-49.1126
-49.7996
-55.2279
-48.6245
-55.0123
-53.0811
-65.3461
-65.3313
-65.3426
-65.3854
-65.5713
-65.5226
-65.6148
-65.6054
51.7767
101.095
119.507
86.4953
98.8893
91.5358
107.435
79.2161
99.0278
33.6461
49.5278
41.6049
41.4065
32.9751
37.7129
122.137
112.983
101.278
89.8201
106.094
92.3929
88.3332
74.0046
122.255
103.77
95.0214
82.6956
93.4411
80.1293
73.8033
65.5189
50.3847
51.9368
75.0158
76.2562
58.3303
60.7626
41.3867
42.8989
33.0927
36.4301
67.2941
55.4897
57.5558
49.5553
37.6389
32.9702
33.5359
29.464
30.6726
32.4775
85.0194
70.9896
70.05
58.4772
70.3449
60.4013
58.051
49.217
53.467
33.0259
43.9876
24.4204
41.3892
23.3144
32.7372
15.0697
36.1404
34.5138
16.6865
27.0754
10.7347
25.0787
8.95453
18.9555
3.6962
45.2637
34.6602
39.8989
29.7482
28.8718
21.4847
24.4432
17.0434
11.1217
-0.513993
9.22471
-2.33239
-2.87673
-11.8044
-4.38785
-13.3919
18.5516
-5.51579
-18.141
-33.8556
-17.3757
-33.2775
-26.7455
-40.4935
-26.4318
-40.3964
-44.2455
-18.6592
-33.0748
-16.7409
-31.2943
-27.2576
-40.1547
-25.6845
-38.9004
-44.0242
-46.4822
-46.0503
-46.2677
-46.0394
-66.9235
-67.0595
-66.6961
-66.9137
-67.2477
-67.3373
-67.1053
-67.2581
23.9589
29.5514
21.4104
23.7362
29.6972
29.4229
28.4237
31.6929
23.0667
25.2757
20.9821
23.5822
26.161
24.7625
30.8455
27.3152
7.55088
6.41025
7.29262
6.35169
5.23982
4.27537
7.28727
5.02629
-31.3995
-32.3806
-30.6993
-31.9198
-32.482
-33.0877
-32.1288
-32.8152
-52.0196
-52.2246
-51.6549
-51.9718
-52.4603
-52.6003
-52.2185
-52.4453
20.1853
20.097
17.5601
16.49
22.6398
31.2925
29.791
38.8894
46.8167
29.9481
29.5528
27.4968
35.7217
36.563
48.7424
49.1177
55.817
62.782
36.2564
40.6148
30.9833
54.2899
55.5854
49.655
51.5796
67.4245
72.2883
42.4925
62.8164
71.4749
69.5836
93.4876
78.8605
95.1679
86.636
110.081
16.6279
24.0947
22.6294
23.3455
27.0185
38.7704
36.0423
47.0743
19.0147
17.9069
34.2967
34.0867
39.416
38.7397
55.0458
58.0877
30.7258
33.9025
41.1454
31.8355
56.58
62.1951
67.8054
68.1872
37.8673
40.0901
38.0985
43.385
76.592
77.9347
81.2183
82.9476
47.1475
49.2384
65.8183
80.609
56.8
63.1379
89.3574
104.499
51.7718
46.1469
87.7417
84.478
63.1182
58.1831
105.931
102.926
112.589
128.629
120.937
144.747
142.58
165.905
157.4
190.04
141.862
142.758
158.864
166.035
180.521
177.788
210.128
209.604
22.7534
19.7646
27.0361
15.359
36.9553
27.1588
67.9586
53.9549
76.8387
65.0627
16.3799
0.28445
21.7905
3.11148
45.6454
19.7156
52.4959
24.6704
34.7473
22.8651
72.1142
56.3268
48.772
35.5568
91.503
71.795
19.2272