# vtk DataFile Version 3.0
Gravity inversion using rectangular prisms
ASCII
DATASET UNSTRUCTURED_GRID

POINTS	1298	double
0	0	0
0	0	200
0	0	400
0	0	600
0	0	800
0	0	1000
0	200	0
0	200	200
0	200	400
0	200	600
0	200	800
0	200	1000
0	400	0
0	400	200
0	400	400
0	400	600
0	400	800
0	400	1000
0	600	0
0	600	200
0	600	400
0	600	600
0	600	800
0	600	1000
0	800	0
0	800	200
0	800	400
0	800	600
0	800	800
0	800	1000
0	1000	0
0	1000	200
0	1000	400
0	1000	600
0	1000	800
0	1000	1000
0	1200	0
0	1200	200
0	1200	400
0	1200	600
0	1200	800
0	1200	1000
0	1400	0
0	1400	200
0	1400	400
0	1400	600
0	1400	800
0	1400	1000
0	1600	0
0	1600	200
0	1600	400
0	1600	600
0	1600	800
0	1600	1000
0	1800	0
0	1800	200
0	1800	400
0	1800	600
0	1800	800
0	1800	1000
0	2000	0
0	2000	200
0	2000	400
0	2000	600
0	2000	800
0	2000	1000
200	0	0
200	0	200
200	0	400
200	0	600
200	0	800
200	0	1000
200	200	0
200	200	200
200	200	400
200	200	600
200	200	800
200	200	1000
200	400	0
200	400	200
200	400	400
200	400	600
200	400	800
200	400	1000
200	600	0
200	600	200
200	600	400
200	600	600
200	600	800
200	600	1000
200	800	0
200	800	200
200	800	400
200	800	600
200	800	800
200	800	1000
200	1000	0
200	1000	200
200	1000	400
200	1000	600
200	1000	800
200	1000	1000
200	1200	0
200	1200	200
200	1200	400
200	1200	600
200	1200	800
200	1200	1000
200	1400	0
200	1400	200
200	1400	400
200	1400	600
200	1400	800
200	1400	1000
200	1600	0
200	1600	200
200	1600	400
200	1600	600
200	1600	800
200	1600	1000
200	1800	0
200	1800	200
200	1800	400
200	1800	600
200	1800	800
200	1800	1000
200	2000	0
200	2000	200
200	2000	400
200	2000	600
200	2000	800
200	2000	1000
400	0	0
400	0	200
400	0	400
400	0	600
400	0	800
400	0	1000
400	200	0
400	200	200
400	200	400
400	200	600
400	200	800
400	200	1000
400	400	0
400	400	200
400	400	300
400	400	400
400	400	600
400	400	800
400	400	1000
400	500	200
400	500	300
400	500	400
400	600	0
400	600	200
400	600	300
400	600	400
400	600	600
400	600	800
400	600	1000
400	800	0
400	800	200
400	800	400
400	800	600
400	800	800
400	800	1000
400	1000	0
400	1000	200
400	1000	400
400	1000	600
400	1000	800
400	1000	1000
400	1200	0
400	1200	200
400	1200	400
400	1200	600
400	1200	800
400	1200	1000
400	1400	0
400	1400	200
400	1400	400
400	1400	600
400	1400	800
400	1400	1000
400	1600	0
400	1600	200
400	1600	400
400	1600	600
400	1600	800
400	1600	1000
400	1800	0
400	1800	200
400	1800	400
400	1800	600
400	1800	800
400	1800	1000
400	2000	0
400	2000	200
400	2000	400
400	2000	600
400	2000	800
400	2000	1000
500	400	200
500	400	300
500	400	400
500	500	200
500	500	300
500	500	400
500	600	200
500	600	300
500	600	400
600	0	0
600	0	200
600	0	400
600	0	600
600	0	800
600	0	1000
600	200	0
600	200	200
600	200	300
600	200	400
600	200	600
600	200	800
600	200	1000
600	300	200
600	300	300
600	300	400
600	400	0
600	400	200
600	400	300
600	400	400
600	400	500
600	400	600
600	400	800
600	400	1000
600	500	200
600	500	300
600	500	400
600	500	500
600	500	600
600	600	0
600	600	200
600	600	300
600	600	400
600	600	500
600	600	600
600	600	800
600	600	1000
600	700	400
600	700	500
600	700	600
600	800	0
600	800	200
600	800	400
600	800	500
600	800	600
600	800	800
600	800	1000
600	1000	0
600	1000	200
600	1000	400
600	1000	600
600	1000	800
600	1000	1000
600	1200	0
600	1200	200
600	1200	400
600	1200	600
600	1200	800
600	1200	1000
600	1400	0
600	1400	200
600	1400	400
600	1400	600
600	1400	800
600	1400	1000
600	1600	0
600	1600	200
600	1600	400
600	1600	600
600	1600	800
600	1600	1000
600	1800	0
600	1800	200
600	1800	400
600	1800	600
600	1800	800
600	1800	1000
600	2000	0
600	2000	200
600	2000	400
600	2000	600
600	2000	800
600	2000	1000
700	200	200
700	200	300
700	200	400
700	300	200
700	300	300
700	300	400
700	400	200
700	400	300
700	400	400
700	400	500
700	400	600
700	500	200
700	500	300
700	500	400
700	500	500
700	500	600
700	600	200
700	600	300
700	600	400
700	600	500
700	600	600
700	700	400
700	700	500
700	700	600
700	800	400
700	800	500
700	800	600
800	0	0
800	0	200
800	0	400
800	0	600
800	0	800
800	0	1000
800	200	0
800	200	200
800	200	300
800	200	400
800	200	600
800	200	800
800	200	1000
800	300	200
800	300	300
800	300	400
800	400	0
800	400	200
800	400	300
800	400	400
800	400	500
800	400	600
800	400	800
800	400	1000
800	500	200
800	500	300
800	500	400
800	500	500
800	500	600
800	600	0
800	600	200
800	600	300
800	600	400
800	600	500
800	600	600
800	600	800
800	600	1000
800	700	200
800	700	300
800	700	400
800	700	500
800	700	600
800	800	0
800	800	200
800	800	300
800	800	400
800	800	500
800	800	600
800	800	800
800	800	1000
800	900	200
800	900	300
800	900	400
800	900	500
800	900	600
800	1000	0
800	1000	200
800	1000	300
800	1000	400
800	1000	500
800	1000	600
800	1000	800
800	1000	1000
800	1200	0
800	1200	200
800	1200	300
800	1200	400
800	1200	600
800	1200	800
800	1200	1000
800	1300	200
800	1300	300
800	1300	400
800	1400	0
800	1400	200
800	1400	300
800	1400	400
800	1400	500
800	1400	600
800	1400	800
800	1400	1000
800	1500	200
800	1500	300
800	1500	400
800	1500	500
800	1500	600
800	1600	0
800	1600	200
800	1600	300
800	1600	400
800	1600	500
800	1600	600
800	1600	800
800	1600	1000
800	1800	0
800	1800	200
800	1800	400
800	1800	600
800	1800	800
800	1800	1000
800	2000	0
800	2000	200
800	2000	400
800	2000	600
800	2000	800
800	2000	1000
900	400	200
900	400	300
900	400	400
900	400	500
900	400	600
900	500	200
900	500	300
900	500	400
900	500	500
900	500	600
900	600	200
900	600	300
900	600	400
900	600	500
900	600	600
900	700	200
900	700	300
900	700	400
900	700	500
900	700	600
900	800	200
900	800	300
900	800	400
900	800	500
900	800	600
900	900	200
900	900	300
900	900	400
900	900	500
900	900	600
900	1000	200
900	1000	300
900	1000	400
900	1000	500
900	1000	600
900	1200	200
900	1200	300
900	1200	400
900	1300	200
900	1300	300
900	1300	400
900	1400	200
900	1400	300
900	1400	400
900	1400	500
900	1400	600
900	1500	200
900	1500	300
900	1500	400
900	1500	500
900	1500	600
900	1600	200
900	1600	300
900	1600	400
900	1600	500
900	1600	600
1000	0	0
1000	0	200
1000	0	400
1000	0	600
1000	0	800
1000	0	1000
1000	200	0
1000	200	200
1000	200	400
1000	200	600
1000	200	800
1000	200	1000
1000	400	0
1000	400	200
1000	400	300
1000	400	400
1000	400	500
1000	400	600
1000	400	800
1000	400	1000
1000	500	200
1000	500	300
1000	500	400
1000	500	500
1000	500	600
1000	600	0
1000	600	200
1000	600	300
1000	600	400
1000	600	500
1000	600	600
1000	600	800
1000	600	1000
1000	700	200
1000	700	300
1000	700	400
1000	700	500
1000	700	600
1000	800	0
1000	800	200
1000	800	300
1000	800	400
1000	800	500
1000	800	600
1000	800	800
1000	800	1000
1000	900	200
1000	900	300
1000	900	400
1000	900	500
1000	900	600
1000	1000	0
1000	1000	200
1000	1000	300
1000	1000	400
1000	1000	500
1000	1000	600
1000	1000	800
1000	1000	1000
1000	1100	200
1000	1100	300
1000	1100	400
1000	1100	500
1000	1100	600
1000	1200	0
1000	1200	100
1000	1200	200
1000	1200	300
1000	1200	400
1000	1200	500
1000	1200	600
1000	1200	700
1000	1200	800
1000	1200	1000
1000	1300	0
1000	1300	100
1000	1300	200
1000	1300	300
1000	1300	400
1000	1300	500
1000	1300	600
1000	1300	700
1000	1300	800
1000	1400	0
1000	1400	100
1000	1400	200
1000	1400	300
1000	1400	400
1000	1400	500
1000	1400	600
1000	1400	700
1000	1400	800
1000	1400	1000
1000	1500	0
1000	1500	100
1000	1500	200
1000	1500	300
1000	1500	400
1000	1500	500
1000	1500	600
1000	1600	0
1000	1600	100
1000	1600	200
1000	1600	300
1000	1600	400
1000	1600	500
1000	1600	600
1000	1600	800
1000	1600	1000
1000	1700	200
1000	1700	300
1000	1700	400
1000	1800	0
1000	1800	200
1000	1800	300
1000	1800	400
1000	1800	600
1000	1800	800
1000	1800	1000
1000	2000	0
1000	2000	200
1000	2000	400
1000	2000	600
1000	2000	800
1000	2000	1000
1100	400	200
1100	400	300
1100	400	400
1100	500	200
1100	500	300
1100	500	400
1100	600	200
1100	600	300
1100	600	400
1100	600	500
1100	600	600
1100	700	200
1100	700	300
1100	700	400
1100	700	500
1100	700	600
1100	800	200
1100	800	300
1100	800	400
1100	800	500
1100	800	600
1100	900	200
1100	900	300
1100	900	400
1100	900	500
1100	900	600
1100	1000	200
1100	1000	300
1100	1000	400
1100	1000	500
1100	1000	600
1100	1100	200
1100	1100	300
1100	1100	400
1100	1100	500
1100	1100	600
1100	1200	0
1100	1200	100
1100	1200	200
1100	1200	300
1100	1200	400
1100	1200	500
1100	1200	600
1100	1200	700
1100	1200	800
1100	1300	0
1100	1300	100
1100	1300	200
1100	1300	300
1100	1300	400
1100	1300	500
1100	1300	600
1100	1300	700
1100	1300	800
1100	1400	0
1100	1400	100
1100	1400	200
1100	1400	300
1100	1400	400
1100	1400	500
1100	1400	600
1100	1400	700
1100	1400	800
1100	1500	0
1100	1500	100
1100	1500	200
1100	1500	300
1100	1500	400
1100	1500	500
1100	1500	600
1100	1600	0
1100	1600	100
1100	1600	200
1100	1600	300
1100	1600	400
1100	1600	500
1100	1600	600
1100	1700	200
1100	1700	300
1100	1700	400
1100	1800	200
1100	1800	300
1100	1800	400
1200	0	0
1200	0	200
1200	0	400
1200	0	600
1200	0	800
1200	0	1000
1200	200	0
1200	200	200
1200	200	400
1200	200	600
1200	200	800
1200	200	1000
1200	400	0
1200	400	200
1200	400	300
1200	400	400
1200	400	600
1200	400	800
1200	400	1000
1200	500	200
1200	500	300
1200	500	400
1200	600	0
1200	600	100
1200	600	200
1200	600	300
1200	600	400
1200	600	500
1200	600	600
1200	600	800
1200	600	1000
1200	700	0
1200	700	100
1200	700	200
1200	700	300
1200	700	400
1200	700	500
1200	700	600
1200	800	0
1200	800	100
1200	800	200
1200	800	300
1200	800	400
1200	800	500
1200	800	600
1200	800	800
1200	800	1000
1200	900	0
1200	900	100
1200	900	200
1200	900	300
1200	900	400
1200	900	500
1200	900	600
1200	1000	0
1200	1000	100
1200	1000	200
1200	1000	300
1200	1000	400
1200	1000	500
1200	1000	600
1200	1000	800
1200	1000	1000
1200	1100	200
1200	1100	300
1200	1100	400
1200	1100	500
1200	1100	600
1200	1200	0
1200	1200	100
1200	1200	200
1200	1200	300
1200	1200	400
1200	1200	500
1200	1200	600
1200	1200	700
1200	1200	800
1200	1200	1000
1200	1300	0
1200	1300	100
1200	1300	200
1200	1300	300
1200	1300	400
1200	1300	500
1200	1300	600
1200	1300	700
1200	1300	800
1200	1400	0
1200	1400	100
1200	1400	200
1200	1400	300
1200	1400	400
1200	1400	500
1200	1400	600
1200	1400	700
1200	1400	800
1200	1400	1000
1200	1500	0
[...]
CELL_DATA	850
SCALARS density double 1
LOOKUP_TABLE table0
-0.110072
14.8782
14.3642
-5.50819
-4.35773
2.05932
-1.34276
6.15798
-2.51799
-4.86121
2.46304
8.60289
11.9277
4.3916
-2.88874
2.23198
15.4881
12.3365
11.2696
2.35634
3.23595
11.0179
9.81776
12.3286
6.45687
2.86221
10.1378
12.9104
10.7826
9.51618
2.87546
10.1287
13.5995
11.7512
10.1755
2.58641
-4.67241
9.97079
14.5878
11.1766
1.00925
4.51198
12.7449
19.9319
15.463
0.342998
-4.51139
14.868
28.4085
26.5331
0.361661
12.3821
-19.6982
0.205845
17.4081
3.76294
-8.48322
-19.5667
-6.34887
1.3928
7.07885
-11.135
-7.59464
-3.27396
-6.2833
7.89834
-6.42086
0.372053
1.03512
-3.92499
9.21067
-11.0326
-6.32671
-2.91605
-5.15328
9.07882
-5.02287
-9.90341
-9.07047
-12.2797
6.50131
4.6251
-7.31056
-11.3482
-13.8931
5.26776
4.86786
-3.25216
-5.70658
-7.90733
3.06962
-1.68783
-0.30177
4.70466
2.68466
1.1333
0.0240656
11.214
18.113
16.5275
1.03512
-2.43262
1.50295
20.2297
30.3905
3.22864
0.896598
-2.22759
-0.12138
3.5792
12.9904
8.27841
3.53344
13.888
8.48762
30.2253
18.9249
42.881
30.4717
31.4436
0.20085
-12.2984
29.7712
53.7293
47.5262
13.7644
-12.994
23.0802
16.6164
18.1615
5.74476
-9.2464
16.2879
-6.15716
-10.2545
-15.0938
-17.217
13.7637
-0.616202
-14.9461
-23.895
-28.1131
11.0516
1.30582
-12.1314
-19.6365
-23.728
6.55548
-2.98991
-6.65557
-4.16343
-3.5224
2.16929
8.06193
13.7953
14.5489
12.3593
-0.976277
1.87792
16.0943
25.243
33.004
-2.79902
-3.30456
24.1625
17.2836
66.1361
69.924
78.9917
79.9193
128.041
-1.57306
-3.01786
0.567334
32.7896
46.0705
78.3415
82.882
111.638
79.2139
117.29
107.969
151.595
99.4226
57.5938
131.762
100.057
137.23
78.6253
174.527
120.354
-10.6295
-21.6848
85.1542
154.866
127.801
81.4363
104.72
69.1233
161.723
106.043
137.489
99.3522
3.19814
-29.8822
46.5451
76.8272
58.0065
11.0816
-26.4519
21.3076
2.36042
2.44423
-9.82597
-23.3837
19.2824
4.09661
-12.3666
-24.1109
-28.2685
16.8208
5.55778
-14.5794
-23.5435
-29.1218
10.6887
-8.45369
-8.78342
-8.77545
-6.61624
3.7563
11.819
11.6896
11.9291
9.65694
-1.93565
7.91801
15.8111
24.1614
32.2864
-2.71438
18.139
-11.0655
-9.92713
-4.23886
14.3158
90.4348
165.492
108.866
184.695
70.1151
159.825
84.9213
145.432
143.978
80.4366
184.37
115.722
126.773
70.2437
140.91
87.3284
-28.7407
-32.6946
58.4702
139.572
158.136
134.917
130.638
105.141
98.0531
88.5341
92.2992
173.869
123.613
135.911
112.333
123.074
76.9747
96.0224
65.4249
-30.6161
-50.3672
39.2142
98.5177
75.5286
55.8103
43.1629
66.5111
38.9049
30.7139
23.6125
80.5481
64.058
38.8806
22.5649
64.5745
30.4957
36.0156
11.1235
-23.0633
-54.1619
23.2925
19.44
13.0448
-17.8356
-44.5214
39.4239
34.8589
48.5115
61.0656
60.7414
72.4505
67.7409
191.668
200.406
46.1382
-15.0841
-29.2826
35.2101
61.592
56.2937
21.0831
34.5404
184.804
194.854
71.1059
76.8087
51.936
-3.17601
19.2608
-8.99608
170.029
39.0251
57.2838
12.2697
-17.0619
-25.406
12.3879
2.31996
-5.21151
-8.38472
-7.22527
6.1584
7.74307
11.4425
12.7492
9.0669
1.50388
8.89787
16.0175
24.0074
32.2562
3.2766
-4.70312
-21.6619
-16.2428
-8.16243
1.15521
36.679
122.689
27.2971
82.1894
-13.1198
75.9937
-105.821
-20.0279
-42.0116
-46.8956
-42.6937
8.45268
18.8552
43.2083
12.9047
13.9112
-107.49
-104.607
-98.945
-118.658
63.4277
34.929
46.2959
26.5179
-35.6637
-27.5396
-57.8364
-45.0802
-67.7905
-68.8261
20.1356
2.98423
12.8128
10.7309
8.68023
-79.7352
-95.6398
-27.3967
-55.6193
24.1587
6.67587
5.52447
-7.96605
-58.6237
-54.8421
-42.3748
-48.8948
-70.384
-79.1419
28.7706
15.2349
1.52324
29.5857
28.1702
-16.893
-39.3889
32.7426
18.1889
-5.37147
-15.9783
7.03137
-15.7604
-29.7934
-42.0759
8.13361
-19.0992
-49.7581
-68.2651
37.1051
82.0741
49.0204
95.3124
37.3991
82.6305
54.3911
105.488
102.3
70.6027
234.815
231.357
89.8005
109.244
223.698
241.384
63.2132
32.0078
187.727
47.2903
73.4254
30.1269
164.172
68.9454
-28.0684
-33.6499
0.443729
-18.0818
-34.5466
-39.2685
1.3914
-19.8091
-41.3314
46.6146
92.0769
33.028
65.2978
47.1377
99.5382
39.0203
63.6175
221.749
240.534
92.6916
95.6754
228.165
250.394
97.4766
93.8993
200.117
68.0067
79.627
21.16
200.065
85.8704
92.6792
29.7733
-8.49701
-20.5378
14.8621
24.616
23.2452
-0.980564
-2.79563
24.1892
28.2956
-3.3068
1.76692
0.11146
-4.7118
-8.30226
6.03762
3.2544
11.5217
15.3441
10.1109
2.41143
9.88766
18.9005
26.3193
34.1668
9.61611
-35.755
-30.9843
-20.0087
-9.59484
-12.8469
-8.75524
24.7918
-128.699
-74.887
-11.8413
-6.10402
-115.272
-100.804
-72.1039
-59.703
-48.3294
-20.9911
-124.267
-14.6598
-102.279
-26.613
-119.875
-20.6401
-115.094
-169.632
-160.008
-166.179
-181.197
-165.759
-176.815
-166.04
-191.452
-116.802
-90.0766
-77.4794
5.70853
-93.995
24.2624
-4.36055
-10.7776
-87.4527
10.7343
-2.76437
-136.62
-143.002
-44.7311
-73.8431
-130.21
-147.707
-27.3487
-65.3565
-106.025
-93.2276
-87.2115
20.5353
-15.844
-34.6126
44.5305
32.1027
16.2916
-16.5338
75.0875
51.1107
-37.0099
-59.6852
23.5527
-18.0319
-35.7524
-62.5702
26.0114
-17.9445
-66.8658
-74.8988
55.2484
100.076
99.9671
235.963
208.31
97.8044
106.454
231.197
193.587
73.5328
19.2424
169.247
88.6977
76.8917
7.57732
188.972
92.226
-35.4562
-44.4817
1.64142
-21.0853
-33.0372
-42.043
1.45746
-18.5923
-47.2902
51.8286
100.107
31.5313
73.1055
48.9478
111.088
33.9327
69.7431
226.141
237.207
92.3084
85.4963
217.993
226.962
93.8026
80.5449
199.808
104.342
80.5965
59.6594
193.686
103.461
62.6549
74.9183
-6.4593
-20.0799
12.1752
30.6906
32.2328
-0.704221
6.38505
34.831
40.4815
0.402529
30.0077
-0.524515
-3.5856
-9.02873
5.02456
10.8419
14.2303
16.0711
11.5458
1.68473
17.6187
23.4408
30.0223
37.8942
8.14943
-22.0576
-31.3732
-18.7775
-6.52188
-4.11513
-50.1791
-75.4376
-58.4705
-43.8269
-30.3655
-119.875
-153.912
-126.676
-166.227
-65.8665
-89.2193
-70.5189
-104.963
-100.675
-79.4247
-66.0566
-0.273268
-88.9758
-126.872
20.0337
-38.5155
-42.1677
-79.208
40.0645
-10.2637
-75.1009
-72.8109
-67.6779
8.49448
57.2266
9.83421
76.2813
60.1336
58.3408
19.1175
57.9442
44.8121
-28.7721
-50.3553
-54.7608
29.5582
76.2914
83.1845
193.691
176.574
62.0116
41.4543
72.2826
97.2619
61.5375
-14.0965
159.314
59.3643
-0.00587481
-39.2942
66.5266
8.33625
-21.6322
-34.9229
31.5451
188.438
193.339
72.0739
73.4953
64.8981
67.805
10.8959
20.9114
35.7398
-7.5272
-16.4309
13.0083
-7.99586
-5.13781
-6.35334
-6.30248
4.97355
-3.0123
13.2344
14.2007
14.2664
0.329874
3.56128
16.0037
32.7275
44.0371
3.36789
16.8764
-16.7198
-5.9501
6.79582
4.28332
-2.5185
-32.0953
-27.4903
-17.6857
2.67791
-13.6095
-30.6091
-28.2279
-23.3374
2.16389
17.1863
-12.295
-17.0943
-16.3374
2.95216
24.3959
-1.05831
-5.56821
-6.22296
8.09661
11.9975
6.92896
2.43825
1.59344
8.24031
28.1648
26.3333
5.37106
2.77755
5.56354
11.6134
-10.2934
1.60464
-6.53388
-0.636326
2.41298
5.48769
-7.27284
-7.34531
2.08705
3.47035
2.23096
3.42615
12.4289
17.5373
23.5478
-0.0498352
0.924035
10.4783
33.3725
48.0459
0.92586
2.21511
4.78747
14.723
24.8137
0.918752
20.2022
7.76393
11.3358
15.2243
0.724443
18.9059
25.7642
22.5792
20.3125
0.293754
13.7817
30.7504
33.4111
29.2506
0.48719
6.24087
27.1691
36.2924
33.8164
0.831155
6.93635
23.2268
31.1805
30.7514
1.65349
7.33826
7.46197
15.5889
18.8083
1.98977
-1.67858
8.81084
19.166
19.1276
0.606137
-1.07628
17.4423
27.8835
32.8929

