# vtk DataFile Version 3.0
Gravity inversion using rectangular prisms
ASCII
DATASET UNSTRUCTURED_GRID

POINTS	6145	double
0	0	0
0	0	200
0	0	400
0	0	600
0	0	800
0	0	1000
0	200	0
0	200	200
0	200	400
0	200	600
0	200	800
0	200	1000
0	400	0
0	400	200
0	400	400
0	400	600
0	400	800
0	400	1000
0	600	0
0	600	200
0	600	400
0	600	600
0	600	800
0	600	1000
0	800	0
0	800	200
0	800	400
0	800	600
0	800	800
0	800	1000
0	1000	0
0	1000	200
0	1000	400
0	1000	600
0	1000	800
0	1000	1000
0	1200	0
0	1200	200
0	1200	400
0	1200	600
0	1200	800
0	1200	1000
0	1400	0
0	1400	200
0	1400	400
0	1400	600
0	1400	800
0	1400	1000
0	1600	0
0	1600	200
0	1600	400
0	1600	600
0	1600	800
0	1600	1000
0	1800	0
0	1800	200
0	1800	400
0	1800	600
0	1800	800
0	1800	1000
0	2000	0
0	2000	200
0	2000	400
0	2000	600
0	2000	800
0	2000	1000
200	0	0
200	0	200
200	0	400
200	0	600
200	0	800
200	0	1000
200	200	0
200	200	200
200	200	400
200	200	600
200	200	800
200	200	1000
200	400	0
200	400	200
200	400	300
200	400	400
200	400	600
200	400	800
200	400	1000
200	500	200
200	500	300
200	500	400
200	600	0
200	600	100
200	600	200
200	600	300
200	600	400
200	600	600
200	600	800
200	600	1000
200	700	0
200	700	100
200	700	200
200	700	300
200	700	400
200	800	0
200	800	100
200	800	200
200	800	300
200	800	400
200	800	600
200	800	800
200	800	1000
200	1000	0
200	1000	200
200	1000	400
200	1000	600
200	1000	800
200	1000	1000
200	1200	0
200	1200	200
200	1200	400
200	1200	600
200	1200	800
200	1200	1000
200	1400	0
200	1400	200
200	1400	400
200	1400	600
200	1400	800
200	1400	1000
200	1600	0
200	1600	200
200	1600	400
200	1600	600
200	1600	800
200	1600	1000
200	1800	0
200	1800	200
200	1800	400
200	1800	600
200	1800	800
200	1800	1000
200	2000	0
200	2000	200
200	2000	400
200	2000	600
200	2000	800
200	2000	1000
300	400	200
300	400	300
300	400	400
300	500	200
300	500	300
300	500	400
300	600	0
300	600	100
300	600	200
300	600	300
300	600	400
300	700	0
300	700	100
300	700	200
300	700	300
300	700	400
300	800	0
300	800	100
300	800	200
300	800	300
300	800	400
400	0	0
400	0	200
400	0	400
400	0	600
400	0	800
400	0	1000
400	200	0
400	200	200
400	200	300
400	200	400
400	200	500
400	200	600
400	200	800
400	200	1000
400	300	200
400	300	300
400	300	400
400	300	500
400	300	600
400	400	0
400	400	100
400	400	200
400	400	300
400	400	400
400	400	500
400	400	600
400	400	800
400	400	1000
400	500	0
400	500	100
400	500	200
400	500	300
400	500	400
400	500	500
400	500	600
400	600	0
400	600	100
400	600	150
400	600	200
400	600	300
400	600	400
400	600	500
400	600	600
400	600	800
400	600	1000
400	650	100
400	650	150
400	650	200
400	700	0
400	700	100
400	700	150
400	700	200
400	700	300
400	700	400
400	700	500
400	700	600
400	800	0
400	800	100
400	800	200
400	800	300
400	800	400
400	800	500
400	800	600
400	800	800
400	800	1000
400	900	0
400	900	100
400	900	200
400	900	300
400	900	400
400	900	500
400	900	600
400	1000	0
400	1000	100
400	1000	200
400	1000	300
400	1000	400
400	1000	500
400	1000	600
400	1000	800
400	1000	1000
400	1200	0
400	1200	200
400	1200	400
400	1200	600
400	1200	800
400	1200	1000
400	1400	0
400	1400	200
400	1400	400
400	1400	600
400	1400	800
400	1400	1000
400	1600	0
400	1600	200
400	1600	400
400	1600	600
400	1600	800
400	1600	1000
400	1800	0
400	1800	200
400	1800	400
400	1800	600
400	1800	800
400	1800	1000
400	2000	0
400	2000	200
400	2000	400
400	2000	600
400	2000	800
400	2000	1000
450	600	100
450	600	150
450	600	200
450	650	100
450	650	150
450	650	200
450	700	100
450	700	150
450	700	200
500	200	200
500	200	300
500	200	400
500	200	500
500	200	600
500	300	200
500	300	300
500	300	400
500	300	500
500	300	600
500	400	0
500	400	100
500	400	200
500	400	300
500	400	400
500	400	500
500	400	600
500	500	0
500	500	100
500	500	200
500	500	300
500	500	400
500	500	500
500	500	600
500	600	0
500	600	50
500	600	100
500	600	150
500	600	200
500	600	250
500	600	300
500	600	400
500	600	500
500	600	600
500	650	0
500	650	50
500	650	100
500	650	150
500	650	200
500	650	250
500	650	300
500	700	0
500	700	50
500	700	100
500	700	150
500	700	200
500	700	250
500	700	300
500	700	400
500	700	500
500	700	600
500	750	100
500	750	150
500	750	200
500	800	0
500	800	100
500	800	150
500	800	200
500	800	250
500	800	300
500	800	400
500	800	500
500	800	600
500	850	200
500	850	250
500	850	300
500	900	0
500	900	100
500	900	200
500	900	250
500	900	300
500	900	400
500	900	500
500	900	600
500	1000	0
500	1000	100
500	1000	200
500	1000	300
500	1000	400
500	1000	500
500	1000	600
550	600	0
550	600	50
550	600	100
550	600	150
550	600	200
550	600	250
550	600	300
550	650	0
550	650	50
550	650	100
550	650	150
550	650	200
550	650	250
550	650	300
550	700	0
550	700	50
550	700	100
550	700	150
550	700	200
550	700	250
550	700	300
550	750	100
550	750	150
550	750	200
550	800	100
550	800	150
550	800	200
550	800	250
550	800	300
550	850	200
550	850	250
550	850	300
550	900	200
550	900	250
550	900	300
600	0	0
600	0	200
600	0	400
600	0	500
600	0	600
600	0	700
600	0	800
600	0	900
600	0	1000
600	100	400
600	100	500
600	100	600
600	100	700
600	100	800
600	100	900
600	100	1000
600	200	0
600	200	100
600	200	200
600	200	300
600	200	400
600	200	500
600	200	600
600	200	700
600	200	800
600	200	900
600	200	1000
600	300	0
600	300	100
600	300	200
600	300	300
600	300	400
600	300	500
600	300	600
600	300	700
600	300	800
600	300	900
600	300	1000
600	400	0
600	400	50
600	400	100
600	400	150
600	400	200
600	400	300
600	400	400
600	400	500
600	400	600
600	400	700
600	400	800
600	400	900
600	400	1000
600	450	0
600	450	50
600	450	100
600	450	150
600	450	200
600	500	0
600	500	50
600	500	100
600	500	150
600	500	200
600	500	250
600	500	300
600	500	400
600	500	500
600	500	600
600	500	700
600	500	800
600	550	0
600	550	50
600	550	100
600	550	150
600	550	200
600	550	250
600	550	300
600	600	0
600	600	50
600	600	100
600	600	150
600	600	200
600	600	250
600	600	300
600	600	350
600	600	400
600	600	500
600	600	600
600	600	700
600	600	800
600	600	1000
600	650	0
600	650	50
600	650	100
600	650	150
600	650	200
600	650	250
600	650	300
600	650	350
600	650	400
600	700	0
600	700	50
600	700	100
600	700	150
600	700	200
600	700	250
600	700	300
600	700	350
600	700	400
600	700	500
600	700	600
600	700	700
600	700	800
600	750	0
600	750	50
600	750	100
600	750	150
600	750	200
600	750	250
600	750	300
600	750	350
600	750	400
600	800	0
600	800	50
600	800	100
600	800	150
600	800	200
600	800	250
600	800	300
600	800	350
600	800	400
600	800	500
600	800	600
600	800	700
600	800	800
600	800	1000
600	850	0
600	850	50
600	850	100
600	850	150
600	850	200
600	850	250
600	850	300
600	900	0
600	900	50
600	900	100
600	900	150
600	900	200
600	900	250
600	900	300
600	900	400
600	900	500
600	900	600
600	950	100
600	950	150
600	950	200
600	1000	0
600	1000	100
600	1000	150
600	1000	200
600	1000	300
600	1000	400
600	1000	500
600	1000	600
600	1000	800
600	1000	1000
600	1100	0
600	1100	100
600	1100	200
600	1100	300
600	1100	400
600	1100	500
600	1100	600
600	1200	0
600	1200	100
600	1200	200
600	1200	300
600	1200	400
600	1200	500
600	1200	600
600	1200	800
600	1200	1000
600	1300	200
600	1300	300
600	1300	400
600	1400	0
600	1400	100
600	1400	200
600	1400	300
600	1400	400
600	1400	600
600	1400	800
600	1400	1000
600	1500	0
600	1500	100
600	1500	200
600	1500	300
600	1500	400
600	1600	0
600	1600	100
600	1600	200
600	1600	300
600	1600	400
600	1600	600
600	1600	800
600	1600	1000
600	1800	0
600	1800	200
600	1800	400
600	1800	600
600	1800	800
600	1800	1000
600	2000	0
600	2000	200
600	2000	400
600	2000	600
600	2000	800
600	2000	1000
650	400	0
650	400	50
650	400	100
650	400	150
650	400	200
650	450	0
650	450	50
650	450	100
650	450	150
650	450	200
650	500	0
650	500	50
650	500	100
650	500	150
650	500	200
650	500	250
650	500	300
650	550	0
650	550	50
650	550	100
650	550	150
650	550	200
650	550	250
650	550	300
650	600	0
650	600	50
650	600	100
650	600	150
650	600	200
650	600	250
650	600	300
650	600	350
650	600	400
650	650	0
650	650	50
650	650	100
650	650	150
650	650	200
650	650	250
650	650	300
650	650	350
650	650	400
650	700	0
650	700	50
650	700	100
650	700	150
650	700	200
650	700	250
650	700	300
650	700	350
650	700	400
650	750	0
650	750	50
650	750	100
650	750	150
650	750	200
650	750	250
650	750	300
650	750	350
650	750	400
650	800	0
650	800	50
650	800	100
650	800	150
650	800	200
650	800	250
650	800	300
650	800	350
650	800	400
650	850	0
650	850	50
650	850	100
650	850	150
650	850	200
650	850	250
650	850	300
650	900	0
650	900	50
650	900	100
650	900	150
650	900	200
650	900	250
650	900	300
650	950	100
650	950	150
650	950	200
650	1000	100
650	1000	150
650	1000	200
700	0	400
700	0	500
700	0	600
700	0	700
700	0	800
700	0	900
700	0	1000
700	100	400
700	100	500
700	100	600
700	100	700
700	100	800
700	100	900
700	100	1000
700	200	0
700	200	100
700	200	200
700	200	300
700	200	400
700	200	500
700	200	600
700	200	700
700	200	800
700	200	900
700	200	1000
700	300	0
700	300	100
700	300	200
700	300	300
700	300	400
700	300	500
700	300	600
700	300	700
700	300	800
700	300	900
700	300	1000
700	400	0
700	400	50
700	400	100
700	400	150
700	400	200
700	400	300
700	400	400
700	400	500
700	400	600
700	400	700
700	400	800
700	400	900
700	400	1000
700	450	0
700	450	50
700	450	100
700	450	150
700	450	200
700	500	0
700	500	50
700	500	100
700	500	150
700	500	200
700	500	250
700	500	300
700	500	400
700	500	500
700	500	600
700	500	700
700	500	800
700	550	0
700	550	50
700	550	100
700	550	150
700	550	200
700	550	250
700	550	300
700	600	0
700	600	50
700	600	100
700	600	150
700	600	200
700	600	250
700	600	300
700	600	350
700	600	400
700	600	500
700	600	600
700	600	700
700	600	800
700	650	0
700	650	50
700	650	100
700	650	150
700	650	200
700	650	250
700	650	300
700	650	350
700	650	400
700	700	0
700	700	50
700	700	100
700	700	150
700	700	200
700	700	250
700	700	300
700	700	350
700	700	400
700	700	500
700	700	600
700	700	700
700	700	800
700	750	0
700	750	50
700	750	100
700	750	150
700	750	200
700	750	250
700	750	300
700	750	350
700	750	400
700	800	0
700	800	50
700	800	100
700	800	150
700	800	200
700	800	250
700	800	300
700	800	350
700	800	400
700	800	500
700	800	600
700	800	700
700	800	800
700	850	0
700	850	50
[...]
CELL_DATA	4245
SCALARS model double 1
LOOKUP_TABLE table0
0.19521
-0.232415
-4.47573
-3.11231
-3.93312
0.113287
-0.402246
-1.81995
-0.587663
-0.63541
-0.231287
0.969713
1.0845
2.84197
3.65843
-0.0429112
3.81471
2.0446
3.08076
3.9719
0.50519
-4.47023
0.304549
2.9862
3.96116
-0.582446
2.02368
2.37949
2.63244
3.44158
-0.344214
1.66291
2.77706
2.69478
3.48475
0.497846
-9.61551
2.66389
2.61399
3.35813
-0.10886
3.32761
3.10758
2.44193
3.23053
0.0856509
-3.00427
-0.480183
2.08716
2.99986
0.0400227
-2.518
-4.49861
6.30462
8.40562
-0.491231
5.50814
-1.89825
2.33886
3.01453
0.280002
-0.890891
-1.09515
-0.512149
-0.557967
-0.630179
-0.624083
-0.364934
-0.405109
0.91621
2.95964
3.84594
0.0356252
1.58805
1.235
3.79844
-0.018046
1.50802
1.34324
3.57278
2.65871
3.6027
4.34574
4.31911
2.67758
3.8079
4.48097
5.16507
2.03441
3.09556
3.98984
1.05651
1.7575
2.11066
3.08074
3.99394
0.000778081
3.06709
3.10498
3.08073
3.94984
-0.701581
2.4048
3.70394
2.95276
3.72254
-0.26591
2.70584
2.24298
2.77139
3.50276
0.0980123
-5.13725
-0.0366198
2.56412
3.20672
-0.0374389
-2.79443
0.0619611
2.22059
2.84707
-0.213283
-4.87937
-0.838046
15.0352
22.467
-0.777087
5.84788
8.05181
5.69759
7.98451
5.89296
8.07082
5.67291
7.96357
-0.170714
-0.590749
-0.0696276
-0.471269
-0.180664
-0.657987
-0.0657797
-0.510795
13.9037
17.8499
-4.45686
11.8089
-3.76285
13.2171
-7.26746
3.10817
-3.77479
44.2326
16.7147
39.1991
38.9366
49.9218
29.546
50.6558
60.5316
50.6538
49.8391
49.804
49.8572
49.5934
49.9531
49.6793
49.874
49.6315
13.7177
16.1965
-0.962792
5.23451
7.40598
5.23201
7.40604
5.24395
7.41933
5.24282
7.41912
6.35352
15.9508
-9.21446
-7.11308
-9.21624
-7.11617
-9.21498
-7.10976
-9.21581
-7.11219
207.48
209.774
207.478
209.773
207.482
209.777
207.479
209.773
15.2282
36.5137
49.1283
36.4557
49.1189
36.5226
49.1478
36.4583
49.1325
35.9581
49.2955
30.8802
49.3282
51.9436
61.1017
51.9405
61.104
51.9828
61.1185
51.9741
61.1171
49.4761
56.7897
50.0142
50.2039
49.8721
49.4264
49.9435
49.7809
49.8878
49.7906
50.2173
6.17154
8.28679
6.31988
15.8164
4.24994
3.04848
6.36788
30.9138
9.03671
26.8095
34.2316
41.7033
1.24388
18.035
45.2199
55.0015
44.1211
53.8561
45.2273
55.0131
44.0912
53.8585
50.2716
43.8858
32.7935
48.6668
49.7361
42.9841
49.9491
49.8353
49.7128
44.3804
49.8829
5.32819
6.84778
2.09951
-0.608048
2.59852
3.43751
4.44035
0.0651609
1.17065
3.70472
3.22011
4.11957
-0.169802
1.36843
2.08715
2.97154
3.79547
-0.467716
0.763648
1.57104
2.39349
3.08023
-0.932079
5.22939
1.62935
2.34905
3.04133
-0.431039
-0.465171
29.343
31.3019
29.3601
31.337
29.3543
31.3073
29.4177
31.3384
48.2085
51.9145
48.2333
51.9004
46.7472
51.8996
48.1902
51.9113
64.1902
71.7427
64.1311
71.6933
64.1938
71.7561
64.1341
71.6713
-0.640657
4.32173
-3.72218
-0.380078
-2.18124
4.01091
-3.35553
0.904312
2.50315
15.3205
2.53055
-2.21267
16.5107
22.9507
27.2758
27.3422
0.885317
-8.1637
0.769294
-8.13748
-9.85322
-9.35654
-8.51436
-9.28172
-2.3321
-2.58829
-2.331
-2.58592
-2.35282
-2.72741
-2.31054
-2.71459
-2.80082
-3.12545
-2.80222
-3.12955
-3.19985
-3.59956
-3.20368
-3.59823
-18.2381
-12.7365
-18.2329
-12.7246
-18.2409
-12.7364
-18.2394
-12.7281
104.532
118.306
104.563
118.36
104.548
118.318
104.568
118.363
-14.6891
-9.1119
-14.6871
-9.09417
-14.6919
-9.11627
-14.6891
-9.09792
211.768
211.272
211.771
211.275
211.764
211.262
211.765
211.262
-9.51572
-8.77033
-9.50902
-8.75219
-9.50912
-8.76676
-9.48851
-8.74233
104.596
118.294
104.606
118.324
104.587
118.256
104.599
118.303
4.7574
13.0233
4.75929
13.0267
4.77293
13.0315
4.77198
13.0307
196.502
203.975
196.5
203.975
196.489
203.941
196.486
203.937
84.2482
53.4914
142.877
138.023
142.891
138.089
142.883
137.987
142.891
138.013
81.9004
84.5654
57.8283
140.538
137.76
140.539
137.962
140.499
137.747
140.497
137.917
81.9799
49.804
49.2962
49.6245
49.5918
50.0074
53.0424
49.7432
49.3568
0.728237
0.768563
1.48714
1.46512
0.255885
0.110522
1.08285
1.15969
0.535147
20.4051
63.1117
20.7422
63.0348
20.6665
63.6392
21.0607
62.3545
105.342
148.986
104.636
147.696
105.627
148.727
105.231
147.776
20.4515
61.6748
20.4913
62.5811
21.4999
62.6263
20.5494
62.4644
103.837
121.334
103.815
120.049
105.248
125.77
105.422
125.283
21.0223
62.9037
21.2999
64.4267
20.7001
62.4828
20.913
62.9072
107.568
151.619
106.435
149.787
105.137
151.851
104.739
149.877
21.6033
65.6227
21.5349
64.8887
21.2182
64.2958
20.8949
64.7403
115.285
149.809
114.615
149.183
115.663
149.677
115.254
149.4
141.996
140.157
141.351
140.2
141.944
140.191
141.353
140.235
139.669
160.798
139.799
160.701
139.5
160.413
139.604
160.53
142.437
140.227
141.812
140.231
142.426
140.25
141.844
140.245
139.82
160.667
140
161.014
139.579
160.381
139.689
160.727
154.715
139.421
160.3
139.58
160.574
139.498
160.757
139.839
160.803
154.735
139.517
160.402
139.537
160.495
139.724
160.859
139.675
160.642
53.9143
50.8468
52.4431
51.0302
53.973
50.4514
53.6644
50.6174
3.48053
3.89877
3.48156
3.90242
3.37849
3.85455
3.38088
3.85492
4.66288
21.0076
62.2262
20.6598
61.2639
20.8438
62.1908
20.9924
60.4237
89.4801
122.015
89.4887
120.236
90.0942
122.263
90.0757
120.198
7.27314
39.3512
57.7052
39.3404
57.6939
39.3279
57.7038
39.3177
57.6963
40.576
130.366
144.105
130.351
144.07
130.362
144.102
130.349
144.066
14.9596
45.281
97.8069
119.745
97.8556
119.589
97.7505
120.272
97.8035
120.162
49.2934
49.8468
32.9159
108.176
49.1785
47.1088
31.8605
49.5979
50.0496
43.3816
50.3739
41.6307
47.2036
39.8541
47.5214
2.35867
2.97991
5.04169
14.1343
3.03359
9.36123
7.38228
15.8083
4.29881
9.08632
23.0608
32.2853
16.5878
23.2068
23.1238
32.1625
16.5765
23.3882
42.9735
53.2878
42.9655
52.7519
42.9379
53.2825
42.9465
53.0694
1.67536
2.12157
2.74926
13.8155
19.7071
14.0905
19.6721
13.9625
19.6952
14.2679
19.7972
11.3272
1.54619
1.98968
-0.712331
0.478713
-0.302252
0.353894
4.36226
13.2396
2.38637
7.6069
14.9882
21.6691
15.4945
22.27
14.6907
21.6188
15.8162
21.8162
1.79027
3.95993
5.18506
-0.658684
1.34528
1.66502
3.9759
5.12539
-0.881253
0.474881
1.54861
3.9517
5.11742
0.0848377
-0.388042
2.5955
1.636
3.12308
3.53615
4.05326
3.77726
3.94116
17.3731
18.0018
14.4268
17.8906
18.2737
18.0538
15.7977
18.2838
46.0181
50.1864
45.7353
51.0866
44.4532
46.1456
44.4814
45.9286
52.4252
59.6543
52.5162
59.7458
52.4133
58.5465
51.2284
58.0912
0.825271
42.7848
19.8035
22.6512
25.5708
29.2093
24.268
21.6258
27.1352
29.2637
45.3276
58.584
45.9973
25.3602
27.7929
26.2138
22.9569
25.3922
22.3194
29.2862
16.5433
47.5966
28.466
22.3297
29.0689
30.1988
29.7951
20.844
29.6889
29.5264
10.6018
-3.43098
3.28276
-11.1877
13.9259
0.876861
1.95913
-3.22057
-50.7512
-15.7709
-18.1515
-15.9819
-18.1619
-14.5087
-18.0064
-15.9707
-18.1018
-47.7433
15.3546
-29.4757
4.17455
-29.5498
5.84011
-31.7572
9.69725
-32.0383
-51.1817
6.94122
-17.9245
-11.2693
-16.2291
14.667
-18.0284
-12.0528
-16.0998
-48.2847
-26.4781
-27.9766
-25.4477
-28.001
-27.1436
-28.8358
-27.039
-28.7711
-24.4953
-27.4449
-24.4894
-27.4546
-24.4593
-27.3463
-24.4646
-27.3107
2.37089
37.565
15.7883
62.3581
7.67477
31.1056
10.7482
37.1329
81.334
71.2372
109.125
71.1674
49.5455
64.5452
55.4747
66.0528
51.4778
49.7026
52.4468
51.4673
46.2959
49.741
46.2947
50.072
46.2096
49.7082
46.2051
50.0253
49.6068
53.0509
49.6156
53.0641
49.6146
53.0767
49.6212
53.0792
46.2079
50.2019
46.1653
50.5581
46.1914
50.1848
46.143
50.5411
49.8151
52.9697
49.0976
52.5476
49.5094
52.7534
49.0776
52.5314
-11.6158
-15.5486
-10.8775
-14.5142
-15.004
-17.8059
-11.0452
-15.9502
-22.6325
-25.3042
-22.8425
-25.5269
-22.5245
-25.2656
-23.0541
-25.7496
20.3209
58.9651
20.1201
58.2879
20.1548
58.2774
19.5566
58.7231
249.234
252.222
249.244
252.239
249.237
252.224
249.246
252.24
20.6973
62.3482
20.8733
62.8598
19.4923
58.6357
20.7359
61.2994
249.334
252.237
249.34
252.233
249.332
252.238
249.338
252.233
19.948
99.5004
140.258
99.4327
140.247
99.4317
140.196
99.3359
140.18
19.9201
93.083
131.742
93.0539
131.731
93.0759
131.737
93.0203
131.725
106.979
131.042
106.946
131.04
106.986
131.032
106.919
131.033
75.2501
107.05
130.467
107.009
130.434
107.043
130.46
106.969
130.436
73.9533
63.3538
58.3672
59.0756
54.757
50.184
48.8089
50.0581
48.5621
48.3606
46.0529
50.7593
46.2584
50.8015
46.0333
50.6768
46.2241
50.7246
46.23
46.3025
50.7038
46.2575
50.6367
46.2758
50.6777
46.2204
50.6226
0.743333
0.752658
0.677529
0.668443
-0.168616
-0.398125
-0.251682
-0.512603
0.558623
0.614818
0.498076
0.556406
-0.667922
-0.762051
-0.743454
-0.862304
28.7439
64.0406
20.0271
52.7449
24.3918
53.1051
20.1681
53.2034
98.3458
116.608
98.3299
116.57
98.3406
116.594
98.3283
116.562
44.5483
46.1699
31.0073
54.9718
26.1615
32.5699
28.4641
48.0855
48.2716
38.7202
48.1237
32.618
38.1881
32.6309
38.1743
32.5928
38.1313
32.6106
38.1294
43.8978
48.5707
43.8737
48.3561
43.8457
48.6729
43.8676
48.4145
34.4222
39.0595
34.6176
39.1605
34.3752
39.022
34.5739
39.1135
43.702
48.3736
43.866
48.3734
43.9683
48.4688
44.0827
48.5124
0.574938
0.265821
-0.92866
-1.3675
-0.548147
-0.682161
-0.757038
-0.978095
0.366294
0.449645
-1.71677
-1.93403
-0.830216
-0.954941
-1.8481
-2.08587
12.2907
22.8771
33.9834
23.079
33.9492
23.4686
30.3577
43.181
52.5447
40.6713
43.9193
41.0221
43.965
38.1553
43.7114
40.2594
43.6491
-1.64931
-3.17141
1.9639
18.0886
15.5527
49.1621
19.925
59.7641
24.1125
79.4291
39.9462
49.9206
50.0677
50.1823
49.9647
50.1558
50.0713
50.1981
49.9714
50.1689
49.8694
54.7184
49.8614
54.5976
49.8845
54.7347
49.8737
54.6127
42.1087
50.808
42.1262
50.927
42.2347
50.875
42.2422
50.8018
49.5607
49.277
49.559
49.268
50.1105
49.2767
50.1152
49.2676
189.478
231.145
188.662
231.327
194.43
235.287
195.097
234.439
193.175
216.395
193.221
216.296
193.091
216.449
193.273
216.446
50.0412
49.9478
50.0492
49.9845
53.3348
49.9439
63.6622
70.9016
63.6718
70.8995
63.6757
70.8749
63.684
70.8657
49.9975
0.424021
1.44265
14.1958
36.7831
34.2759
36.8761
34.2711
36.8507
34.276
36.9588
34.2686
2.24652
38.762
43.6293
38.7175
43.6136
38.7225
43.6124
38.6548
43.5499
31.9669
76.0807
113.395
76.0733
113.395
76.6604
116.532
76.6462
116.515
8.54898
36.2978
43.5595
36.2763
43.5015
34.7661
43.6014
34.7309
43.5992
49.962
49.9754
49.705
49.9221
49.9722
49.9904
49.7067
49.9319
49.706
54.0522
49.6756
53.9521
49.7253
54.0752
49.6961
53.9746
45.0622
50.0138
142.436
175.769
141.106
171.282
144.497
175.795
144.521
175.164
193.537
220.509
196.955
221.49
193.385
220.558
193.176
221.242
26.5736
38.6977
25.1594
38.5981
26.5439
38.6816
25.1318
38.593
45.6419
52.0444
45.5587
52.0986
48.4672
56.2241
48.6067
56.2894
50.0456
49.9999
50.0405
49.9729
63.6883
70.9058
63.7046
70.8877
63.699
70.8385
63.7197
70.8183
50.0111
62.6963
49.9963
7.12238
9.06008
0.0641736
9.00516
-3.39042
9.73582
4.99642
13.0126
0.946395
5.20084
34.4128
50.0095
17.85
25.1664
33.3883
49.1297
17.3915
24.8422
6.89951
8.34273
6.31535
7.60397
6.94139
8.43496
6.33197
7.61363
5.76781
7.38206
0.0325455
0.630511
-0.201176
0.438937
-0.217873
-1.62028
-0.27746
-1.87156
-0.274874
1.51717
5.73624
7.40914
0.841453
2.22199
6.62112
-1.26683
3.22669
5.57968
7.22826
6.79943
10.3288
19.9884
19.6435
18.1522
18.2553
18.0615
17.7169
17.9719
17.5582
44.6717
43.6412
44.5999
43.6378
42.1156
42.9398
42.1126
42.843
49.911
56.2429
50.0213
56.2408
49.7535
56.1677
49.6678
55.5604
-0.0920802
2.41877
0.987702
8.86955
-0.312374
24.9917
-0.499325
10.6726
15.1941
14.3319
15.8573
15.2784
15.35
14.4319
16.1153
15.3313
20.9986
-17.8134
19.6164
-10.8287
17.2301
-18.1471
17.0938
-11.1955
59.6562
10.6497
-4.61058
9.97684
-3.99515
11.3047
-4.92455
11.3032
-4.20776
61.1482
73.5841
60.4455
73.2714
80.1884
82.175
64.9868
82.0879
-24.9656
-39.7146
-0.962089
-38.1169
-35.3789
-40.8796
-29.453
-38.1981
59.7417
58.5943
59.1928
46.0476
57.2988
44.1236
57.2227
44.0944
21.2375
-1.78553
34.0506
1.13016
27.0014
-0.697775
26.9512
5.77191
-50.8192
-60.089
-49.9761
-62.0821
-50.692
-59.889
-48.7439
-62.8995
-33.5734
-30.7879
-33.6058
-33.3123
-34.6332
-33.2184
-34.716
-33.4807
-18.7825
-21.0207
-19.0202
-21.1953
-18.8858
-21.1434
-18.82
-21.0394
2.74479
16.1757
9.28633
16.4648
-1.91998
33.3125
-1.4794
-0.227796
44.352
48.8673
44.3556
48.0141
44.3322
48.7996
44.3358
47.9581
-18.6285
-30.2059
-19.0821
-35.4409
-18.5657
-30.0333
-19.0722
-32.6694
40.5866
-26.4492
-35.5532
-29.2621
-38.301
-26.3169
-34.4709
-29.1661
-38.3226
21.7822
29.4975
22.2235
24.1801
17.4912
15.8491
20.2527
18.5843
4.32872
-32.7455
4.17252
-33.6109
-4.97798
-32.4713
-5.95826
-33.6907
16.0049
20.4734
-13.5394
-14.3636
13.7963
18.7841
-15.1684
-14.6688
-12.2024
-34.43
-24.4678
-38.5541
-12.0599
-34.821
-24.1904
-39.0495
-43.6973
-57.9703
-63.7755
-58.0014
-63.818
-58.1143
-63.8914
-58.135
-63.9301
-50.6038
-58.349
-64.4303
-58.4309
-64.6071
-58.3689
-64.5548
-58.5099
-64.6577
-50.8303
-82.056
-60.1212
-80.4125
-74.1106
-76.8397
-74.1272
-76.9899
-75.6408
-77.0573
-76.0434
-77.2581
-86.951
-97.184
-86.9992
-97.2449
-87.4251
-97.8483
-87.4094
-97.7231
14.3263
33.3885
45.8257
33.4124
45.9238
33.3845
45.8221
33.4155
45.8365
21.0811
31.7351
3.0058
-9.93717
-18.0789
-10.2495
-18.6287
-10.2041
-18.1086
-10.4014
-18.991
12.3038
-25.9643
-22.7727
-27.9181
-23.4448
-31.1451
-24.469
-30.5864
-24.639
-29.6324
-35.3579
-46.4188
-37.9444
-45.555
-35.8283
-45.7365
-36.3894
-43.2786
-33.1171
-39.1646
-30.1584
-38.7925
-33.0813
-42.5758
-32.4093
-42.6916
-46.4239
-56.3995
-48.0882
-57.3303
-48.1668
-56.4226
-49.9488
-58.4266
-35.4527
-43.5092
-35.6686
-43.9927
-35.5341
-43.6735
-35.7735
-44.0352
-51.2904
-59.1125
-52.4117
-60.6561
-51.7108
-59.3756
-52.4557
-60.7651
-37.65
-41.1641
-37.659
-47.6404
-37.7997
-41.2616
-37.8082
-45.2949
-58.6835
-46.6042
-60.5152
-67.0243
-62.1764
-68.0952
-60.5515
-67.0792
-62.2478
-68.1559
-64.9681
-63.8685
-64.7193
-65.8561
-65.0838
-63.9044
-64.8302
-65.8685
-71.2346
-77.655
-72.9237
-80.1161
-71.3082
-77.7657
-73.3011
-80.2356
-70.7897
-81.612
-74.3076
-77.8847
-75.9266
-76.7007
-76.4917
-77.2161
-79.3154
-77.5196
-82.9654
-77.8361
-86.6949
-96.8785
-86.7762
-96.9316
-87.7142
-98.0458
-88.5675
-98.9623
26.3667
22.4986
23.6326
19.3739
23.6245
-20.9696
-30.6406
-19.9371
-29.9828
-21.0204
-31.217
-20.2096
-30.0208
23.5427
14.5428
-36.4853
-45.439
-39.253
-47.8438
-37.6694
-46.0038
-39.6971
-48.5469
-55.4922
-66.3897
-53.6421
-63.3222
-55.2154
-64.5557
-53.7454
-63.3318
-45.085
-54.8548
-63.3082
-54.7988
-63.3335
-54.8926
-63.3624
-54.9168
-63.4416
-39.0001
-49.0877
-39.1308
-49.3159
-40.5636
-48.7466
-41.9777
-52.8717
-69.7682
-44.3023
-54.4107
-44.5715
-54.2513
-46.8673
-57.094
-46.3466
-56.7938
-63.6665
-73.0525
-63.8238
-73.0805
-67.4378
-80.2583
-67.4257
-80.1209
-71.8407
-79.8065
-71.7824
-80.1762
-71.8851
-79.8451
-71.9569
-80.3244
-85.7418
-93.2558
-88.6354
-96.5879
-86.146
-93.2919
-88.7064
-96.892
-71.6206
-80.0465
-71.5217
-80.107
-71.7584
-80.3374
-71.7669
-80.1435
-88.3556
-96.2713
-88.2444
-96.5185
-88.5594
-96.6516
-88.444
-96.6444
-80.2942
-97.0405
-78.4124
-80.3544
-78.3057
-80.3192
-114.039
-95.3084
-114.038
-95.3757
-88.5011
-96.9391
-88.5644
-96.931
-105.76
-116.027
-105.823
-116.072
-77.2403
-80.2514
-71.8295
-77.7109
-71.6568
-77.6167
-71.8225
-77.6966
-71.6274
-77.63
-87.2886
-88.7334
-80.3864
-73.6586
-82.8964
-86.9216
-97.1285
-81.9176
-87.9685
-92.8053
-87.5113
-92.3461
-88.0085
-92.862
-87.5432
-92.389
-96.3019
-107.649
-92.0581
-102.661
19.188
19.2669
16.8452
45.9469
18.5768
18.5906
17.4531
46.6491
14.5588
23.7002
38.5472
48.4048
45.3967
47.0398
38.478
48.5178
45.3465
46.8323
47.9361
50.4954
47.3821
50.5053
46.6621
50.4637
46.5917
50.4488
13.0628
23.3863
26.8312
23.2028
26.5324
23.3349
26.8282
23.3178
26.8014
38.4456
54.2317
40.3734
46.1848
38.0516
54.4791
39.075
45.5401
46.5066
49.7912
46.4357
49.8079
47.6871
49.7417
47.4496
49.6779
31.2626
37.4042
40.9295
37.4447
41.0184
37.5621
41.121
37.4841
41.1324
50.142
39.1146
29.8711
33.2323
29.6631
33.2433
30.1624
33.5543
30.2002
33.5487
37.2655
40.7265
37.0837
40.7902
37.4232
41.1019
37.4719
41.0493
50.7648
38.9512
-19.0783
-22.55
-17.0307
-21.3083
-19.433
-22.4116
-17.0697
-21.3194
-26.4493
-29.9553
-24.0689
-26.8822
-25.3646
-28.3428
-24.1293
-26.9599
5.67183
11.6837
5.67414
11.6882
5.6721
11.6859
5.67247
11.6879
101.899
122.972
101.904
123.001
101.897
122.973
101.906
122.998
49.3584
109.732
150.264
109.44
151.862
109.376
150.787
109.514
153.83
26.2381
62.4607
88.855
62.4637
88.8606
62.6192
87.8288
62.6237
87.8394
26.8518
66.1095
26.8517
66.0803
26.8518
66.048
26.8515
65.9716
106.363
151.822
106.007
153.646
105.979
151.485
105.925
153.542
43.5529
45.7365
43.0704
45.7814
43.6144
45.3421
43.1975
45.5317
45.5818
43.2628
53.8566
44.2803
44.9963
41.6979
53.1036
43.7838
194.156
237.41
195.223
237.038
194.228
236.948
194.194
237.452
193.062
216.373
192.998
216.732
193.021
216.389
192.884
216.252
54.4237
45.3035
54.5199
46.1995
46.9314
46.5656
47.0819
46.2663
42.4552
43.4809
46.6698
43.6308
41.8621
35.5837
29.8177
35.6952
215.602
189.515
214.214
189.669
213.574
187.065
213.933
187.416
213.511
50.367
54.3237
50.6506
54.7014
49.2717
53.4211
49.4686
52.5036
49.9859
63.7054
70.8255
63.7414
70.8492
63.7177
70.849
63.7518
70.8943
49.998
49.6523
50.1154
48.1182
49.44
45.2123
45.5434
42.148
45.7839
49.9709
63.7103
70.7782
63.7601
70.8589
63.6803
70.6985
63.7296
70.7618
49.9787
4.39916
5.25361
18.3126
29.0491
18.2988
29.0506
18.3125
29.0552
18.2972
29.0517
104.451
151.033
104.347
150.395
104.641
151.125
104.667
150.285
20.0919
44.6411
47.1365
44.5824
46.7719
44.6401
47.3653
44.5761
47.125
44.3721
111.365
154.994
110.826
154.965
111.52
154.584
110.927
154.448
25.2383
44.4144
52.1004
44.3789
52.0698
44.3846
52.1101
44.3597
52.0833
193.744
238.373
194.4
239.482
193.107
238.505
194.166
238.718
193.003
217.414
193.03
217.51
193.003
216.37
192.971
216.438
49.7673
51.5251
49.8335
51.2273
49.8382
51.5247
50.0451
51.4934
49.7567
58.2913
49.5804
58.0912
51.6012
58.8498
51.5828
59.206
196.771
238.121
197.274
238.064
196.705
239.733
197.339
240.231
190.042
213.698
190.183
214.54
189.318
213.825
189.295
213.735
50.3411
50.4555
50.1074
50.6206
50.3626
50.2127
50.1713
50.5083
51.9293
58.6001
51.7236
58.0424
52.6413
59.6436
51.2299
59.2488
63.7537
70.8178
63.7636
70.7928
63.7842
70.8682
63.8216
70.8165
50.0238
67.12
49.999
63.8022
70.8186
63.8481
70.7437
63.7964
70.7423
63.8582
70.6697
50.0018
67.0392
49.9823
6.75739
8.68559
5.66133
23.0366
1.85986
7.10259
11.2397
33.4304
4.05296
7.67512
43.9881
50.2121
41.3992
50.4398
44.0166
50.8634
41.531
49.7598
53.9652
3.83824
5.58475
44.0357
50.7192
41.6403
49.8027
44.1529
50.7455
41.897
50.6968
53.9727
3.79726
5.22251
6.98244
8.52131
6.3623
7.71962
6.95084
8.44074
5.98947
7.30964
6.58777
8.35354
0.781192
-1.41328
-1.03833
-1.33061
-0.921144
-1.23495
-1.04692
-1.12813
-0.99438
4.5227
6.51326
8.47331
0.664758
14.9134
15.1469
16.1395
15.788
10.3832
13.5021
17.2085
15.3564
38.8396
42.0143
33.028
37.2601
32.9945
37.2473
33.0032
37.236
32.9798
37.2292
43.0558
20.8743
32.0591
28.2123
36.0448
38.6574
38.894
38.5662
38.8898
34.3288
38.8424
33.5867
38.8458
45.0948
51.2696
45.1785
51.2422
44.9719
50.6756
44.8017
50.6367
2.99299
-1.79903
-58.7933
4.76922
-50.4698
28.3914
-51.8949
28.1621
-46.2024
-66.9851
-71.3193
-66.8564
-71.3129
-66.978
-71.2577
-66.835
-71.1272
-60.9254
-75.2875
-61.1879
-30.8334
-36.1969
-11.7928
-9.09066
-30.9125
-36.0341
-9.37235
-9.17927
-61.5614
-70.9002
-59.2238
-34.6644
-33.63
-34.6986
-31.9534
-37.1902
-33.3435
-35.8504
-33.2621
-22.6033
-25.2396
-24.6321
-27.5132
-26.3091
-29.3961
-25.0175
-27.9538
-1.2521
-19.6345
-7.7494
-32.9531
-6.67794
-19.797
-13.7843
-34.4416
-23.0719
-42.4236
-49.3842
-42.4425
-49.4787
-42.4231
-49.4375
-42.4262
-49.5419
-52.1948
-45.77
-52.8216
-46.1471
-53.2585
-45.828
-52.8282
-46.1792
-53.2511
-22.8703
-43.2301
-56.6309
-54.2844
-84.6837
-82.7718
-64.3781
-92.7749
-70.5584
-71.0788
-75.1882
-95.3111
-92.0231
-93.2511
-90.6111
-93.6002
-92.0214
-93.5451
-90.0126
-93.6694
-92.884
-104.355
-92.5601
-105.079
-93.0761
-103.831
-92.7444
-105.164
-3.22123
-14.3963
-3.28164
-14.3986
-3.21874
-14.3753
-3.28036
-14.3757
-120.815
-148.924
-120.815
-148.923
-120.818
-148.967
-120.814
-148.964
-9.08809
-82.9283
-121.029
-83.0605
-120.853
-82.7803
-120.996
-83.0171
-121.033
-15.3614
-21.4869
-15.3635
-21.5186
-15.3664
-21.8818