# vtk DataFile Version 3.0
Gravity inversion using rectangular prisms
ASCII
DATASET UNSTRUCTURED_GRID

POINTS	3897	double
0	0	0
0	0	200
0	0	400
0	0	600
0	0	800
0	0	1000
0	200	0
0	200	200
0	200	400
0	200	600
0	200	800
0	200	1000
0	400	0
0	400	200
0	400	400
0	400	600
0	400	800
0	400	1000
0	600	0
0	600	200
0	600	400
0	600	600
0	600	800
0	600	1000
0	800	0
0	800	200
0	800	400
0	800	600
0	800	800
0	800	1000
0	1000	0
0	1000	200
0	1000	400
0	1000	600
0	1000	800
0	1000	1000
0	1200	0
0	1200	200
0	1200	400
0	1200	600
0	1200	800
0	1200	1000
0	1400	0
0	1400	200
0	1400	400
0	1400	600
0	1400	800
0	1400	1000
0	1600	0
0	1600	200
0	1600	400
0	1600	600
0	1600	800
0	1600	1000
0	1800	0
0	1800	200
0	1800	400
0	1800	600
0	1800	800
0	1800	1000
0	2000	0
0	2000	200
0	2000	400
0	2000	600
0	2000	800
0	2000	1000
200	0	0
200	0	200
200	0	400
200	0	600
200	0	800
200	0	1000
200	200	0
200	200	200
200	200	400
200	200	600
200	200	800
200	200	1000
200	400	0
200	400	200
200	400	400
200	400	600
200	400	800
200	400	1000
200	600	0
200	600	200
200	600	400
200	600	600
200	600	800
200	600	1000
200	800	0
200	800	200
200	800	400
200	800	600
200	800	800
200	800	1000
200	1000	0
200	1000	200
200	1000	400
200	1000	600
200	1000	800
200	1000	1000
200	1200	0
200	1200	200
200	1200	400
200	1200	600
200	1200	800
200	1200	1000
200	1400	0
200	1400	200
200	1400	400
200	1400	600
200	1400	800
200	1400	1000
200	1600	0
200	1600	200
200	1600	400
200	1600	600
200	1600	800
200	1600	1000
200	1800	0
200	1800	200
200	1800	400
200	1800	600
200	1800	800
200	1800	1000
200	2000	0
200	2000	200
200	2000	400
200	2000	600
200	2000	800
200	2000	1000
400	0	0
400	0	200
400	0	400
400	0	600
400	0	700
400	0	800
400	0	1000
400	100	600
400	100	700
400	100	800
400	200	0
400	200	200
400	200	400
400	200	600
400	200	700
400	200	800
400	200	1000
400	400	0
400	400	200
400	400	300
400	400	400
400	400	600
400	400	800
400	400	1000
400	500	200
400	500	300
400	500	400
400	600	0
400	600	100
400	600	200
400	600	300
400	600	400
400	600	600
400	600	800
400	600	1000
400	700	0
400	700	100
400	700	200
400	700	300
400	700	400
400	800	0
400	800	100
400	800	200
400	800	300
400	800	400
400	800	600
400	800	800
400	800	1000
400	900	200
400	900	300
400	900	400
400	1000	0
400	1000	200
400	1000	300
400	1000	400
400	1000	600
400	1000	800
400	1000	1000
400	1100	200
400	1100	300
400	1100	400
400	1200	0
400	1200	200
400	1200	300
400	1200	400
400	1200	600
400	1200	800
400	1200	1000
400	1400	0
400	1400	200
400	1400	400
400	1400	600
400	1400	800
400	1400	1000
400	1600	0
400	1600	200
400	1600	400
400	1600	600
400	1600	800
400	1600	1000
400	1800	0
400	1800	200
400	1800	400
400	1800	600
400	1800	800
400	1800	1000
400	2000	0
400	2000	200
400	2000	400
400	2000	600
400	2000	800
400	2000	1000
500	0	600
500	0	700
500	0	800
500	100	600
500	100	700
500	100	800
500	200	600
500	200	700
500	200	800
500	400	200
500	400	300
500	400	400
500	500	200
500	500	300
500	500	400
500	600	0
500	600	100
500	600	200
500	600	300
500	600	400
500	700	0
500	700	100
500	700	200
500	700	300
500	700	400
500	800	0
500	800	100
500	800	200
500	800	300
500	800	400
500	900	200
500	900	300
500	900	400
500	1000	200
500	1000	300
500	1000	400
500	1100	200
500	1100	300
500	1100	400
500	1200	200
500	1200	300
500	1200	400
600	0	0
600	0	200
600	0	400
600	0	600
600	0	700
600	0	800
600	0	1000
600	100	600
600	100	700
600	100	800
600	200	0
600	200	100
600	200	200
600	200	300
600	200	400
600	200	600
600	200	700
600	200	800
600	200	1000
600	300	0
600	300	100
600	300	200
600	300	300
600	300	400
600	400	0
600	400	100
600	400	200
600	400	250
600	400	300
600	400	400
600	400	500
600	400	600
600	400	800
600	400	1000
600	450	200
600	450	250
600	450	300
600	500	0
600	500	100
600	500	200
600	500	250
600	500	300
600	500	400
600	500	500
600	500	600
600	550	200
600	550	250
600	550	300
600	600	0
600	600	100
600	600	150
600	600	200
600	600	250
600	600	300
600	600	350
600	600	400
600	600	500
600	600	600
600	600	800
600	600	1000
600	650	100
600	650	150
600	650	200
600	650	250
600	650	300
600	650	350
600	650	400
600	700	0
600	700	100
600	700	150
600	700	200
600	700	250
600	700	300
600	700	350
600	700	400
600	700	500
600	700	600
600	750	100
600	750	150
600	750	200
600	750	250
600	750	300
600	750	350
600	750	400
600	800	0
600	800	100
600	800	150
600	800	200
600	800	250
600	800	300
600	800	350
600	800	400
600	800	500
600	800	600
600	800	800
600	800	900
600	800	1000
600	850	200
600	850	250
600	850	300
600	850	350
600	850	400
600	900	0
600	900	100
600	900	200
600	900	250
600	900	300
600	900	350
600	900	400
600	900	500
600	900	600
600	900	800
600	900	900
600	900	1000
600	950	200
600	950	250
600	950	300
600	950	350
600	950	400
600	1000	0
600	1000	100
600	1000	200
600	1000	250
600	1000	300
600	1000	350
600	1000	400
600	1000	500
600	1000	600
600	1000	800
600	1000	900
600	1000	1000
600	1050	300
600	1050	350
600	1050	400
600	1100	200
600	1100	300
600	1100	350
600	1100	400
600	1100	500
600	1100	600
600	1200	0
600	1200	200
600	1200	300
600	1200	400
600	1200	500
600	1200	600
600	1200	800
600	1200	1000
600	1300	200
600	1300	300
600	1300	400
600	1300	500
600	1300	600
600	1400	0
600	1400	200
600	1400	300
600	1400	400
600	1400	500
600	1400	600
600	1400	800
600	1400	1000
600	1500	200
600	1500	300
600	1500	400
600	1500	500
600	1500	600
600	1600	0
600	1600	200
600	1600	300
600	1600	400
600	1600	500
600	1600	600
600	1600	800
600	1600	1000
600	1800	0
600	1800	200
600	1800	400
600	1800	600
600	1800	800
600	1800	1000
600	2000	0
600	2000	200
600	2000	400
600	2000	600
600	2000	800
600	2000	1000
650	400	200
650	400	250
650	400	300
650	450	200
650	450	250
650	450	300
650	500	200
650	500	250
650	500	300
650	550	200
650	550	250
650	550	300
650	600	100
650	600	150
650	600	200
650	600	250
650	600	300
650	600	350
650	600	400
650	650	100
650	650	150
650	650	200
650	650	250
650	650	300
650	650	350
650	650	400
650	700	100
650	700	150
650	700	200
650	700	250
650	700	300
650	700	350
650	700	400
650	750	100
650	750	150
650	750	200
650	750	250
650	750	300
650	750	350
650	750	400
650	800	100
650	800	150
650	800	200
650	800	250
650	800	300
650	800	350
650	800	400
650	850	200
650	850	250
650	850	300
650	850	350
650	850	400
650	900	200
650	900	250
650	900	300
650	900	350
650	900	400
650	950	200
650	950	250
650	950	300
650	950	350
650	950	400
650	1000	200
650	1000	250
650	1000	300
650	1000	350
650	1000	400
650	1050	300
650	1050	350
650	1050	400
650	1100	300
650	1100	350
650	1100	400
700	200	0
700	200	100
700	200	200
700	200	300
700	200	400
700	300	0
700	300	100
700	300	200
700	300	300
700	300	400
700	400	0
700	400	100
700	400	200
700	400	250
700	400	300
700	400	400
700	400	500
700	400	600
700	450	200
700	450	250
700	450	300
700	500	0
700	500	100
700	500	200
700	500	250
700	500	300
700	500	400
700	500	500
700	500	600
700	550	200
700	550	250
700	550	300
700	600	0
700	600	100
700	600	150
700	600	200
700	600	250
700	600	300
700	600	350
700	600	400
700	600	500
700	600	600
700	650	100
700	650	150
700	650	200
700	650	250
700	650	300
700	650	350
700	650	400
700	700	0
700	700	100
700	700	150
700	700	200
700	700	250
700	700	300
700	700	350
700	700	400
700	700	500
700	700	600
700	750	100
700	750	150
700	750	200
700	750	250
700	750	300
700	750	350
700	750	400
700	800	0
700	800	100
700	800	150
700	800	200
700	800	250
700	800	300
700	800	350
700	800	400
700	800	500
700	800	600
700	800	800
700	800	900
700	800	1000
700	850	200
700	850	250
700	850	300
700	850	350
700	850	400
700	900	0
700	900	100
700	900	200
700	900	250
700	900	300
700	900	350
700	900	400
700	900	500
700	900	600
700	900	800
700	900	900
700	900	1000
700	950	200
700	950	250
700	950	300
700	950	350
700	950	400
700	1000	0
700	1000	100
700	1000	200
700	1000	250
700	1000	300
700	1000	350
700	1000	400
700	1000	500
700	1000	600
700	1000	800
700	1000	900
700	1000	1000
700	1050	300
700	1050	350
700	1050	400
700	1100	200
700	1100	300
700	1100	350
700	1100	400
700	1100	500
700	1100	600
700	1200	200
700	1200	300
700	1200	400
700	1200	500
700	1200	600
700	1300	200
700	1300	300
700	1300	400
700	1300	500
700	1300	600
700	1400	200
700	1400	300
700	1400	400
700	1400	500
700	1400	600
700	1500	200
700	1500	300
700	1500	400
700	1500	500
700	1500	600
700	1600	200
700	1600	300
700	1600	400
700	1600	500
700	1600	600
750	500	200
750	500	250
750	500	300
750	550	200
750	550	250
750	550	300
750	600	100
750	600	150
750	600	200
750	600	250
750	600	300
750	650	100
750	650	150
750	650	200
750	650	250
750	650	300
750	700	100
750	700	150
750	700	200
750	700	250
750	700	300
750	750	100
750	750	150
750	750	200
750	750	250
750	750	300
750	800	100
750	800	150
750	800	200
750	800	250
750	800	300
750	850	200
750	850	250
750	850	300
750	900	200
750	900	250
750	900	300
750	900	350
750	900	400
750	950	200
750	950	250
750	950	300
750	950	350
750	950	400
750	1000	200
750	1000	250
750	1000	300
750	1000	350
750	1000	400
750	1050	300
750	1050	350
750	1050	400
750	1100	300
750	1100	350
750	1100	400
800	0	0
800	0	100
800	0	200
800	0	400
800	0	600
800	0	800
800	0	1000
800	100	0
800	100	100
800	100	200
800	200	0
800	200	100
800	200	150
800	200	200
800	200	300
800	200	400
800	200	500
800	200	600
800	200	700
800	200	800
800	200	900
800	200	1000
800	250	100
800	250	150
800	250	200
800	300	0
800	300	100
800	300	150
800	300	200
800	300	250
800	300	300
800	300	350
800	300	400
800	300	500
800	300	600
800	300	700
800	300	800
800	300	900
800	300	1000
800	350	200
800	350	250
800	350	300
800	350	350
800	350	400
800	400	0
800	400	100
800	400	200
800	400	250
800	400	300
800	400	350
800	400	400
800	400	450
800	400	500
800	400	600
800	400	700
800	400	800
800	400	900
800	400	1000
800	450	200
800	450	250
800	450	300
800	450	350
800	450	400
800	450	450
800	450	500
800	500	0
800	500	100
800	500	200
800	500	250
800	500	300
800	500	350
800	500	400
800	500	450
800	500	500
800	500	600
800	500	800
800	500	900
800	500	1000
800	550	200
800	550	250
800	550	300
800	550	350
800	550	400
800	550	450
800	550	500
800	600	0
800	600	100
800	600	150
800	600	200
800	600	250
800	600	300
800	600	350
800	600	400
800	600	450
800	600	500
800	600	600
800	600	800
800	600	900
[...]
CELL_DATA	2572
SCALARS model double 1
LOOKUP_TABLE table0
0.105196
1.59672
-6.99055
-11.1237
-14.2999
0.16615
0.370896
1.51713
-6.98318
-9.00367
-0.146839
1.49974
2.14453
2.58589
3.31335
0.125085
1.1645
1.52893
2.3979
3.06468
0.0842977
0.662823
1.47109
2.31239
2.99687
-0.62278
0.961223
1.50136
2.23948
2.87402
-0.301007
0.926239
1.91656
2.27117
2.90553
0.258307
-5.99089
1.81083
2.36255
3.04926
-0.186096
1.74298
1.50606
1.21718
1.58465
-0.0417087
-2.21658
0.678845
1.1898
1.53828
0.190664
-0.0953145
-9.65077
0.0997849
7.19547
-0.158417
0.716969
1.09135
0.859023
1.09496
0.205776
-0.171825
1.63106
2.35998
2.99711
0.182645
-0.1694
1.75002
2.41171
3.09352
0.279884
0.387131
1.28826
2.46592
3.29285
-0.501583
1.23501
1.7893
2.19278
2.82515
-0.766485
2.10203
2.26894
2.27768
2.88339
-0.268109
-0.333143
1.52219
2.33498
2.94193
-0.180613
-2.08413
0.492585
1.21191
1.55788
-0.175436
-2.0146
0.404133
1.20282
1.55059
0.295101
-12.5016
-16.452
47.7905
54.0329
47.787
54.0323
47.7924
54.0336
47.7924
54.0336
65.2964
-0.244954
4.744
13.1579
13.1423
16.8975
2.67201
28.2142
41.4763
28.1325
41.5252
33.6678
47.87
33.7552
47.8561
45.5718
2.29296
2.92624
5.3252
14.5846
5.45006
14.6525
10.3485
17.085
10.252
16.829
71.6076
72.7499
71.6137
72.7488
71.6233
72.7708
71.6191
72.7742
46.2417
2.34411
3.02758
3.81224
13.2549
21.284
13.1351
21.0204
16.2631
24.7993
15.9686
23.6711
38.2945
4.18341
5.38179
-0.123694
-0.763401
-0.532849
-0.537295
-0.462342
-0.668736
-0.444775
-0.54091
-0.434267
1.7259
5.01761
6.4771
-0.569797
-0.0956213
1.59015
2.37876
3.0822
-0.471769
0.605225
1.64466
2.17369
2.79081
-0.630938
0.032048
0.767496
0.868822
1.0701
-0.721562
2.29957
0.965235
0.906076
1.03861
-0.0615261
5.20579
29.4462
52.1344
67.0268
-0.832217
10.5373
1.14193
10.5241
-1.19423
10.452
1.23141
10.5111
14.446
19.5894
14.4245
19.6535
14.2561
19.5451
14.4222
19.6904
22.2318
-0.000552131
0.00372143
11.6833
24.4705
24.9686
23.2149
11.7342
24.5073
25.4632
23.2382
132.636
135.458
132.64
135.469
132.636
135.461
132.64
135.47
131.703
133.403
135.788
133.423
135.814
133.404
135.786
133.424
135.811
139.09
134.188
131.709
133.473
135.668
133.475
135.669
133.474
135.669
133.477
135.668
139.087
48.7185
59.4244
48.1404
59.4326
48.7278
59.4789
48.1856
59.4785
2.29851
2.84326
16.5567
187.734
188.74
187.732
188.739
187.734
188.741
187.732
188.74
15.2272
187.726
188.737
187.723
188.737
187.727
188.738
187.723
188.738
24.0961
193.341
194.414
193.342
194.414
193.341
194.414
193.342
194.414
24.1376
193.492
194.307
193.493
194.305
193.493
194.308
193.493
194.306
272.793
273.897
272.801
273.896
272.793
273.897
272.799
273.897
160.588
161.236
160.592
161.238
160.59
161.238
160.592
161.24
272.799
273.894
272.609
273.893
272.801
273.896
272.615
273.894
188.022
186.864
188.023
186.864
188.022
186.867
188.022
186.866
272.257
274.118
272.26
274.128
272.256
274.114
272.257
274.108
180.363
274.059
274.095
274.059
274.1
274.059
274.11
274.059
274.104
179.105
48.1622
58.5749
47.8119
58.5569
48.1655
58.5716
47.8047
58.5582
2.3224
2.98708
23.0426
17.8739
3.16249
11.639
23.0361
17.8748
3.1499
11.6017
137.703
151.297
137.723
151.279
137.837
151.28
137.803
151.278
178.223
186.572
178.13
186.563
178.257
186.573
178.119
186.563
138.375
151.493
138.348
151.474
138.394
151.552
138.372
151.551
167.837
185.951
167.454
185.942
167.858
185.95
167.447
185.94
138.018
151.997
138.023
151.974
138.01
151.968
137.977
151.948
177.142
138.452
151.891
138.438
151.83
138.461
151.886
138.444
151.909
168.014
185.503
168.012
185.501
168.012
185.5
167.995
185.497
47.6172
58.1947
46.7992
57.0669
47.6213
58.192
46.7938
57.0671
7.68507
6.62929
7.37709
6.69386
7.47966
6.84691
7.64668
6.73754
7.53506
-3.35118
-1.4123
-0.0388533
-0.0399587
-0.12036
-0.123579
0.0248539
0.037765
-0.0806721
-0.0893046
-1.48482
-0.33001
-1.37572
0.0369147
0.0540023
-0.0469532
-0.0500113
0.047404
0.0683092
-0.0330248
-0.0240043
-1.472
-0.329876
2.4139
2.41392
2.41654
2.40232
2.64351
2.58616
2.64566
2.59052
3.93551
6.78428
-0.88518
-0.482307
-0.515024
-0.479317
-0.500957
-0.508627
-0.511911
-0.509599
-0.501105
0.728728
1.07348
0.758664
1.09871
0.725599
1.06274
0.743701
1.00838
2.55093
3.39614
0.427945
-0.117663
0.0553392
-0.130662
0.0309976
-0.110425
0.00452662
-0.0990189
0.0419127
0.782652
0.990613
0.652666
1.04893
0.753645
1.13251
0.747158
1.02026
2.16652
2.79048
-0.671116
-0.240347
0.544462
0.798891
1.01471
-0.764078
-0.269663
0.538882
0.784396
0.979237
0.619202
1.36039
1.31876
3.33097
1.85086
0.210218
2.80916
4.05567
7.48769
25.9959
42.9261
33.0479
-4.78093
88.6267
89.3629
88.6303
89.3687
88.6278
89.3685
88.6265
89.3655
3.32169
23.5811
-2.71843
62.1941
1.94429
53.9678
-39.2171
-73.7868
-37.1124
-40.1883
-37.0901
-40.1823
-37.1428
-40.1922
-37.1423
-40.1902
-67.9728
-77.1529
-67.9675
-77.1547
-67.9809
-77.1502
-67.9743
-77.1503
-39.6273
-73.7592
-39.5368
-43.3503
-39.532
-43.3452
-39.5383
-43.3706
-39.539
-43.3639
-69.7338
-76.4255
-69.7297
-76.4224
-69.7352
-76.4244
-69.7306
-76.4209
-48.0079
-58.6876
-48.7067
-58.6529
-48.079
-58.671
-53.3164
-58.6554
-10.0895
-11.7097
-10.0887
-11.7132
-10.0844
-11.7166
-10.0862
-11.7194
25.7597
28.8266
25.7378
28.7886
25.7384
28.8255
25.7287
28.7911
10.6382
30.6322
26.8888
49.8606
7.95178
18.9121
6.9471
22.6588
131.304
132.962
131.305
132.971
131.303
132.96
131.301
132.967
123.661
140.626
124.017
140.59
123.645
140.556
124.002
140.593
123.751
127.072
129.136
127.077
129.137
127.072
129.137
127.075
129.137
87.3504
106.874
87.5612
107.221
87.2529
106.717
87.3371
106.806
122.018
140.434
122.19
140.696
122.003
140.242
122.118
140.763
97.2865
122.117
140.965
122.267
140.948
122.118
140.868
122.098
140.937
-64.0596
-71.5893
-63.9879
-71.613
-64.0584
-71.5886
-63.9897
-71.6073
-79.687
-63.9242
-71.4081
-63.8244
-71.1944
-63.9244
-71.4094
-63.8238
-71.1953
-79.6654
-52.3175
-57.5075
-52.3319
-57.5088
-52.4979
-57.4969
-52.5106
-57.5004
-70.8855
-53.9852
-59.8173
-53.984
-59.8176
-53.9814
-59.811
-53.979
-59.8118
-71.5583
-59.6768
-72.7524
-81.2969
-72.7277
-81.2869
-72.8855
-81.3165
-72.8857
-81.3172
26.2004
84.0159
26.1987
81.1935
6.79082
83.8003
-4.80801
80.8515
186.356
190.46
186.361
190.451
186.319
190.453
186.324
190.449
144.028
188.21
190.388
188.214
190.379
188.21
190.385
188.209
190.377
161.561
157.653
161.561
157.655
161.559
157.652
161.558
157.646
186.266
187.485
186.265
187.494
186.256
187.466
186.256
187.475
141.448
142.027
141.454
142.031
141.45
142.026
141.453
142.028
186.246
187.5
186.244
187.506
186.198
187.476
186.185
187.492
159.85
152.413
159.852
152.414
159.837
152.381
159.835
152.376
-19.6268
-22.4703
-19.3723
-22.4841
-19.6637
-22.1827
-19.5482
-22.0822
-25.6898
-19.2264
-22.6863
-19.4033
-22.0016
-19.6565
-22.99
-19.6018
-22.932
-25.6056
-21.088
-26.7625
-19.9909
-22.5576
-19.8363
-22.7179
-20.8402
-22.93
-20.8742
-23.4751
-26.5237
-53.8062
-69.2917
7.20352
10.3542
-3.9312
-11.8079
-1.59209
-5.32759
-6.2313
-12.7111
195.229
194.283
195.229
194.287
195.229
194.287
195.229
194.288
140.436
185.635
187.043
185.635
187.051
185.637
187.068
185.635
187.055
140.257
193.632
194.294
193.611
194.299
193.551
194.295
193.529
194.3
132.257
185.574
187.081
185.574
187.1
185.552
187.097
185.549
187.097
132.203
46.6304
57.098
46.9209
57.0627
46.4952
54.4627
59.8131
54.463
59.8109
54.4635
59.8156
54.463
59.8128
46.5631
56.9671
-64.1885
-77.2021
-64.1872
-77.1988
-64.2327
-77.5489
-64.2283
-77.5502
-88.7856
-99.2488
-88.7864
-99.2484
-89.1668
-99.6558
-89.1022
-99.6085
-9.2103
45.1084
43.6196
45.1205
43.62
45.1209
43.6215
45.1279
43.6228
54.6321
64.823
54.6659
67.0017
54.708
64.8295
54.7656
67.022
-1.17127
-2.1602
-1.16425
-2.14103
-1.17476
-2.16744
-1.16772
-2.14998
-4.7245
-5.25479
-4.71549
-5.21122
-4.7243
-5.25737
-4.71649
-5.21294
-11.2421
35.938
13.3903
45.986
9.57798
39.5907
22.3367
46.1575
60.7691
84.5804
79.8824
89.5915
62.1955
85.1208
89.3862
92.5933
99.5807
121.159
102.079
121.172
102.571
121.181
102.107
121.18
9.4519
11.0975
9.45389
11.073
9.44458
11.0934
9.44703
11.0648
13.1462
14.0127
73.4412
102.904
72.9319
103.004
77.5411
104.266
74.5091
103.883
131.68
115.45
131.091
132.975
131.09
132.974
131.091
132.979
131.09
132.978
110.061
120.556
110.05
120.553
110.062
120.554
110.05
120.552
133.28
115.351
133.08
115.352
8.62455
9.91568
8.52778
9.77966
8.63091
9.93091
8.52495
9.77778
11.7032
0.521759
0.926664
1.16283
0.863281
1.12355
0.910164
1.13963
0.934371
1.18317
0.932832
1.09854
0.523751
0.795596
0.87453
0.932344
0.53273
0.658786
0.993021
1.30801
-0.016939
-0.573421
-0.328962
0.74965
1.02672
2.42579
5.71922
3.47764
6.75179
2.21057
4.61536
4.28304
3.30178
16.1615
16.166
15.5412
15.8015
15.8372
15.9916
14.9508
15.519
27.8321
47.1065
67.1412
0.766827
65.9504
90.6678
52.3231
77.2434
61.7166
88.6932
56.1566
79.6855
1.24564
51.4781
66.152
50.6595
66.4214
54.3784
73.4822
50.8847
74.8431
1.57974
50.3945
81.2368
54.1644
78.8963
53.8122
90.6104
55.3344
77.2613
0.0639425
53.356
73.5879
51.7221
74.5456
54.4671
72.653
53.5447
75.4426
-53.2558
-65.314
-53.2208
-65.2933
-53.2532
-65.3281
-53.2346
-65.3092
-82.5926
-60.0248
-80.5265
-61.3721
-64.6857
-61.3642
-64.6839
-61.3694
-64.6833
-61.3632
-64.6819
-82.4336
-59.2461
-83.0119
-53.4068
-55.8876
-57.3984
-56.8123
-54.1656
-55.87
-55.1997
-55.8662
-13.8115
-15.9122
-13.8412
-15.9155
-13.8347
-15.9175
-13.87
-15.9203
5.7992
6.46786
5.79464
6.46624
5.75452
6.44836
5.75328
6.44514
1.59603
54.6451
1.21899
10.5149
-3.4182
65.1122
-4.32392
-2.67038
2.83096
-35.9792
-41.2841
-35.9814
-41.2973
-35.98
-41.2878
-35.9819
-41.3162
2.84774
-36.5014
-41.4498
-36.4996
-41.2997
-36.5002
-41.486
-36.4996
-41.3269
-8.8458
-38.9209
-13.1929
-39.3787
-58.3454
-70.4267
-56.4182
-72.4366
-62.0371
-71.543
-61.5991
-72.5378
-88.5956
-79.1383
-89.7124
-79.0003
-89.0421
-79.5823
-90.9829
-79.5911
-90.4615
-11.7329
85.4846
85.8661
85.488
85.8661
85.4822
85.8701
85.486
85.87
-18.5444
100.407
103.286
100.431
103.283
100.413
103.286
100.428
103.282
-7.02009
-16.3921
-21.8991
-16.385
-21.894
-16.39
-21.9032
-16.3871
-21.9058
-12.9125
-13.1008
-17.9909
-13.1029
-17.9902
-13.1011
-17.9937
-13.1038
-17.9933
11.6362
14.3235
11.6334
14.325
11.64
14.322
11.6352
14.3215
10.1039
7.47765
8.96727
7.46417
9.03126
7.48884
8.94518
7.46962
9.04047
9.27597
11.569
9.43529
11.1226
9.2484
11.1925
9.43048
10.9821
-28.6043
-34.8275
-27.461
-33.6016
-28.619
-34.8349
-27.4734
-33.6126
-43.9143
-21.9424
-32.2672
-21.9423
-32.2644
-21.9449
-32.2731
-21.9398
-32.2662
-42.9601
-55.1689
-67.7104
-54.2732
-67.5405
-60.8412
-69.0609
-60.8621
-69.0574
-83.0065
-104.589
-10.0138
-30.0495
-9.36891
-16.8053
-9.78331
-22.6361
-10.7697
-16.3515
6.53612
9.28955
6.53975
9.29288
6.53778
9.28923
6.53742
9.28881
11.0209
19.3715
22.7819
19.3802
22.7978
19.3701
22.78
19.3824
22.8
17.341
-15.4413
-19.2918
20.0089
4.2487
-23.0438
-28.2503
-21.7401
-28.5305
-23.3291
-28.3722
-18.4639
-28.1938
-69.7054
-82.9508
-69.7027
-82.9984
-69.7074
-82.9975
-69.7057
-83.1205
-93.6813
-104.681
-93.5385
-104.543
-94.012
-105.068
-95.9605
-107.269
-7.38758
-12.5194
-4.53615
-12.6745
-7.30413
-12.5134
-3.31557
-12.5672
64.1331
53.2389
64.0649
49.5964
66.1807
53.2601
67.2405
48.8423
54.8974
66.1203
55.7829
68.013
57.3385
65.982
58.2914
67.6359
-29.8021
-40.8641
-26.8915
-32.8248
-29.8014
-40.8694
-26.8848
-32.8383
-46.8979
-52.4142
-46.8482
-52.3596
-46.9238
-52.4428
-46.9255
-52.4363
6.50421
53.6216
34.0784
99.487
6.94895
56.9104
32.1602
99.4521
121.56
168.132
152.16
168.141
146.54
168.121
162.086
168.134
129.952
120.881
129.961
120.879
129.954
120.877
129.963
120.874
7.47176
8.53507
7.56596
8.72307
7.47251
8.37128
7.54162
8.53371
10.1931
32.7427
98.2968
4.51648
83.756
32.3245
97.6376
5.86594
82.3563
165.465
171.606
163.307
163.868
163.307
163.868
163.279
163.87
163.28
163.869
161.985
162.884
161.983
162.883
161.985
162.885
161.983
162.884
165.809
171.578
163.254
165.048
163.254
165.048
163.254
165.047
163.253
165.047
171.566
130.877
120.633
130.903
120.589
130.788
120.643
130.801
120.634
7.84837
8.47326
7.77357
8.39196
7.51908
8.46274
7.49646
8.36288
10.0309
2.24475
0.834762
1.03007
0.381274
0.718295
0.693309
0.73225
0.431333
0.496027
0.790277
0.807592
0.62987
0.881188
0.878804
0.873907
0.811993
0.769548
1.06061
1.35241
0.141961
-2.61234
0.286992
0.895582
1.05569
1.99591
2.13581
2.35061
2.96198
1.18324
0.70903
0.669778
3.16632
23.7012
23.1991
26.4378
25.6236
5.4521
11.7626
21.587
20.3338
32.3969
33.1841
32.4887
33.1818
32.826
33.1817
32.824
33.1839
51.075
50.9612
-2.54957
63.9533
-2.10537
59.25
-5.02515
94.9632
95.5401
94.9606
95.5398
94.9615
95.539
94.9649
95.5404
-2.31172
42.3844
-57.0093
-85.9905
-56.6786
-82.5626
-50.1521
-55.7803
-50.1513
-55.779
-50.1476
-55.7778
-50.1474
-55.7763
-85.776
-49.6706
-72.7022
-57.8681
-59.5763
-57.8656
-59.5918
-58.7343
-59.6338
-58.7401
-59.6364
-9.71807
-10.4163
-9.71605
-10.4214
-9.75911
-10.717
-9.75903
-10.7205
-5.71329
-6.3857
-5.71444
-6.38468
-5.69947
-6.36947
-5.6881
-6.35985
-1.97264
23.4896
-2.65041
-34.7306
-35.5204
-34.7321
-35.5209
-34.7338
-35.5203
-34.7334
-35.52
-4.63288
-11.1981
-8.17256
-30.77
-34.3349
-30.7715
-34.337
-30.7705
-34.3361
-30.7697
-34.3351
-49.1642
-73.6329
-50.5058
-71.6791
-49.6844
-72.161
-48.9044
-69.2265
-109.932
-110.048
-109.929
-110.048
-109.929
-110.049
-109.928
-110.049
-85.3377
-98.1736
-109.088
-98.9129
-110.528
-98.5222
-109.99
-99.0899
-110.856
15.2819
15.2729
15.2818
15.2724
15.282
15.2724
15.2818
15.2715
-245.887
-254.177
-246.223
-254.207
-246.219
-254.226
-246.266
-254.205
7.46913
7.58333
7.46905
7.58318
7.46912
7.58349
7.46896
7.58278
-261.925
-261.902
-261.927
-261.909
-261.928
-261.9
-261.928
-261.894
10.8733
10.8385
10.8733
10.8385
10.8722
10.8366
10.8726
10.8371
-246.233
-254.2
-246.323
-254.232
-246.352
-254.239
-246.355
-254.219
10.8773
10.842
10.8773
10.8414
10.8772
10.8417
10.8775
10.8421
-261.827
-261.826
-261.828
-261.829
-261.828
-261.795
-261.827
-261.791
-200.696
-202.196
-200.696
-202.204
-200.698
-202.201
-200.697
-202.208
-150.38
-200.229
-202.409
-200.146
-202.404
-200.236
-202.414
-200.138
-202.402
-150.433
-200.399
-150.376
-201.58
-150.436
-113.49
-109.541
-113.49
-109.537
-113.476
-109.536
-113.501
-109.534
-77.7902
-88.7038
-77.781
-88.7033
-77.752
-88.6985
-77.742
-88.6922
-99.2701
-110.931
-99.394
-111.084
-99.3654
-111.044
-99.4021
-111.089
-10.6247
-43.7711
-10.2012
-13.5633
-15.5648
-41.3544
-9.64826
-21.1647
-62.5377
-80.093
-24.8211
-81.4392
-60.3415
-87.9051
-29.2317
-86.7599
-3.14355
-0.97342
-1.12023
-0.707582
-0.493432
-0.552074
-1.31197
-0.499011
0.579664
21.5882
2.19785
21.5883
-2.60482
8.25637
2.32919
8.45565
30.9968
33.0322
31.1151
32.9562
30.9641
33.0192
30.9991
32.8839
34.8178
36.7306
34.6965
36.5296
34.8261
36.7494
34.6992
36.5485
31.9165
34.5634
36.512
34.557
36.3842
34.6109
36.5996
34.6198
36.4462
31.8955
35.6691
31.889
35.6268
-7.1673
-0.640775
1.7061
0.894623
-1.01658
-2.96325
-0.76259
-0.0485879
10.8077
7.70809
0.625828
0.1014
-0.120693
-0.160362
0.632057
0.116505
-0.127016
-0.154354
4.31714
1.75754
2.62469
0.486014
2.0626
2.74884
2.72728
2.26604
3.91316
3.7966
2.12147
1.95802
3.96218
4.44094
-26.1699
2.83123
-26.0458
3.89503
7.73316
2.31955
-2.38462
-46.9192
-52.4381
-46.9267
-52.4351
-46.9065
-52.4144
-46.8928
-52.4013
11.3108
49.7987
31.9657
96.6204
11.8505
49.2269
32.7966
99.879
159.794
160.882
159.795
160.887
159.794
160.883
159.794
160.886
167.377
162.335
167.39
134.076
161.177
152.024
161.153
128.367
129.75
128.368
129.741
128.339
123.672
135.168
123.818
135.359
123.27
134.395
124.048
134.977
128.353
129.532
6.45814
7.41044
6.22369
7.21968
5.71596
6.51558
5.55349
6.66678
7.07305
7.88903
6.93355
7.75786
6.83198
7.63045
6.90648
7.74381
32.0351
97.0313
5.08896
78.1775
32.6486
99.8685
5.0086
77.3446
163.945
171.411
164.153
164.893
164.152
164.893
164.191
164.893
164.191
164.892
171.518
163.934
170.744
164.268
164.896
164.268
164.895
164.268
164.896
164.268
164.895
162.716
162.959
162.714
162.957
162.714
162.957
162.712
162.955
128.372
130.409
128.372
129.088
140.846
129.089
140.847
129.1
140.867
129.101
140.868
128.366
130.423
128.368
129.117
141.333
129.117
141.335
129.13
142.203
129.131
142.204
6.18294
6.29387
6.08235
6.14673
5.86972
6.24702
5.3824
6.23265
7.45938
1.5039
0.789572
0.811478
0.420355
0.972374
1.15027
1.02256
0.686087
0.891304
0.968189
1.09392
1.03604
1.22434
0.947885
1.14368
0.978461
1.1051
1.38292
1.79705
0.470623
1.25427
1.22976
1.04718
1.36511
0.000773052
20.246
1.29941
18.1675
8.16401
18.1752
7.51864
12.5526
10.9642
14.7299
57.4851
66.1427
57.4819
66.142
57.4848
66.1497
57.4816
66.1479
75.8895
81.2232
75.8839
81.221
75.8854
81.225
75.8822
81.2223
-2.71886
19.3455
-1.9004
21.3488
-3.20583
19.6862
-3.2856
20.8149
-2.02803
-44.8385
4.4824
-32.5809
61.4689
-26.6707
49.3922
-28.9286
-60.0837
-73.5554
-59.406
-73.9255
-57.196
-73.5194
-57.2504
-73.7123
-24.6444
-25.1028
-24.6636
-25.105
-22.9938
-25.1083
-23.3732
-25.1138
-5.75272
-6.42867
-5.75981
-6.4337
-5.75762
-6.4327
-5.76678
-6.44066
-2.9143
-9.31211
-5.80192
-17.5316
-2.31509
-7.8948
-5.48176
-15.7615
-5.50979
-28.9404
-6.5081
-8.17831
-6.51001
-8.1802
-6.50986
-8.18028
-6.50978
-8.18014
-28.988
-11.6163
-28.7748
-20.543
-28.9236
-63.9202
-70.4159
-63.9298
-70.4194
-63.9135
-70.421
-63.9278
-70.4247
-75.3264
-86.6895
-75.3637
-86.78
-75.3009
-86.6607
-75.3494
-86.7791
-99.4581
-111.2
-99.426
-111.05
-99.4075
-111.176
-99.3893
-111.049
9.33312
8.92563
9.3329
8.92846
9.33295
8.92419
9.33287
8.92887
-247.933
-249.142
-247.934
-249.144
-247.931
-249.137
-247.929
-249.136
8.28287
9.10448
8.28265
9.10435
8.28289
9.1043
8.28266
9.10454
-248.056
-249.732
-248.058
-249.734
-248.031
-249.73
-248.03
-249.732
1.03237
-34.2486
-35.4113
-34.2485
-35.4115
-34.2477
-35.4116
-34.247
-35.4113
0.904135
-29.1467
-30.7412
-29.1482
-30.7412
-29.1475
-30.7456
-29.1483
-30.7465
-194.195
-195.688
-194.196
-195.691
-194.189
-195.688
-194.188
-195.689
-143.98
-195.57
-143.968
-137.137
-139.013
-137.137
-139.012
-137.132
-139.013
-137.131
-139.011
-142.511
-142.724
-142.531
-142.729
-142.514
-142.721
-142.53
-142.728
-137.097
-139.007
-137.052
-139.004
-137.099
-139.007
-137.058
-139.002
-142.533
-142.748
-142.528
-142.742
-142.531
-142.744
-142.528
-142.741
-63.7715
-71.469
-63.7814
-71.3797
-63.757
-71.4636
-63.7757
-71.2912
-75.3668
-86.8917
-75.3787
-87.7034
-75.354
-86.8896
-75.3699
-87.4861
-99.4843
-111.182
-99.3957
-111.101
-99.3764
-111.147
-99.157
-107.836
-112.746
-107.829
-112.744
-107.828
-112.737
-107.82
-112.735
-6.47012
-24.6248
-4.97981
-14.9188
-2.809
-14.3008
-1.51216
-8.7619
-134.763
-135.584
-134.761
-135.578
-134.761
-135.584
-134.765
-135.584
-87.22
-101.133
-102.332
-101.117
-102.332
-101.129
-102.328
-101.128
-102.334
-89.6838
-47.5444
-66.4972
-14.0868
-45.1091
1.52177
1.96022
1.55743
1.91414
1.59529
2.0151
1.574
1.97824
2.68368
2.08279
2.37037
2.00016
3.9911
4.59748
3.66828
2.23975
31.8756
35.6269
31.8741
35.6103
31.9235
35.6755
31.9219
35.6788
0.00524922
-1.50624
-2.03818
-0.472743
-0.785003
1.16848
-1.0394
-0.331617
-0.900175
0.0366244
0.0891667
0.780942
1.34949
-0.163872
1.20773
0.401631
3.15928
1.98774
1.92236
3.96355
-0.503378
0.868027
0.83725
2.04204
1.87247
-46.8736
-52.3737
-46.883
-52.3841
-46.841
-52.3476
-46.8579
-52.3639
11.1864
42.5936
21.1406
44.4012
5.99121
28.7637
11.5826
34.7196
73.6561
104.041
75.4879
105.357
72.5772
101.702
75.3453
102.706
108.53
123.325
133.756
123.568
134.235
122.423
134.404
123.538
135.164
108.524
129.029
108.572
122.397
132.927
123.063
135.224
121.781
132.595
122.12
132.665
108.687
123.595
135.224
123.195
135.447
122.269
133.936
122.771
135.131
5.46577
5.6741
5.87687
5.86717
5.37483
5.70372
5.29726
5.9264
6.87761
20.997
44.4995
14.5813
41.4816
14.0936
34.8742
-3.29698
33.154
77.3152
105.859
79.8466
105.244
75.8219
106.148
75.8623
105.316
110.771
130.342
110.107
124.45
138.105
124.452
138.097
124.866
136.905
124.864
136.907
110.055
124.28
135.629
124.192
135.594
124.272
134.97
124.155
135.312
110.059
124.11
135.849
124.079
135.878
123.212
135.562
123.191
135.605
5.98171
5.87581
5.52324
5.98684
5.39602
5.89141
5.26188
5.96587
7.0753
2.45213
-9.05391
-10.0396
-9.0628
-10.0231
-9.0514
-10.0286
-9.07142
-10.0326