# vtk DataFile Version 3.0
Gravity inversion using rectangular prisms
ASCII
DATASET UNSTRUCTURED_GRID

POINTS	2551	double
100	100	100
100	100	300
100	100	500
100	100	700
100	100	900
100	300	100
100	300	300
100	300	500
100	300	700
100	300	900
100	500	100
100	500	300
100	500	500
100	500	700
100	500	900
100	700	100
100	700	300
100	700	500
100	700	700
100	700	900
100	900	100
100	900	300
100	900	500
100	900	700
100	900	900
100	1100	100
100	1100	300
100	1100	500
100	1100	700
100	1100	900
100	1300	100
100	1300	300
100	1300	500
100	1300	700
100	1300	900
100	1500	100
100	1500	300
100	1500	500
100	1500	700
100	1500	900
100	1700	100
100	1700	300
100	1700	500
100	1700	700
100	1700	900
100	1900	100
100	1900	300
100	1900	500
100	1900	700
100	1900	900
300	100	100
300	100	300
300	100	500
300	100	700
300	100	900
300	300	100
300	300	300
300	300	500
300	300	700
300	300	900
300	500	100
300	500	300
300	500	500
300	500	700
300	500	900
300	700	100
300	700	300
300	700	500
300	700	700
300	700	900
300	900	100
300	900	300
300	900	500
300	900	700
300	900	900
300	1100	100
300	1100	300
300	1100	500
300	1100	700
300	1100	900
300	1300	100
300	1300	300
300	1300	500
300	1300	700
300	1300	900
300	1500	100
300	1500	300
300	1500	500
300	1500	700
300	1500	900
300	1700	100
300	1700	300
300	1700	500
300	1700	700
300	1700	900
300	1900	100
300	1900	300
300	1900	500
300	1900	700
300	1900	900
500	100	100
500	100	300
500	100	500
500	100	700
500	100	900
500	300	100
500	300	300
500	300	500
500	300	700
500	300	900
500	500	100
450	450	250
450	450	350
450	550	250
450	550	350
550	450	250
550	450	350
550	550	250
550	550	350
500	500	500
500	500	700
500	500	900
450	650	50
450	650	150
450	750	50
450	750	150
550	650	50
550	650	150
550	750	50
550	750	150
450	650	250
450	650	350
450	750	250
450	750	350
550	650	250
550	650	350
550	750	250
550	750	350
500	700	500
500	700	700
500	700	900
500	900	100
450	850	250
450	850	350
450	950	250
450	950	350
550	850	250
550	850	350
550	950	250
550	950	350
500	900	500
500	900	700
500	900	900
500	1100	100
450	1050	250
450	1050	350
450	1150	250
450	1150	350
550	1050	250
550	1050	350
550	1150	250
550	1150	350
500	1100	500
500	1100	700
500	1100	900
500	1300	100
500	1300	300
500	1300	500
500	1300	700
500	1300	900
500	1500	100
500	1500	300
500	1500	500
500	1500	700
500	1500	900
500	1700	100
500	1700	300
500	1700	500
500	1700	700
500	1700	900
500	1900	100
500	1900	300
500	1900	500
500	1900	700
500	1900	900
700	100	100
700	100	300
700	100	500
700	100	700
700	100	900
700	300	100
650	250	250
650	250	350
650	350	250
650	350	350
750	250	250
750	250	350
750	350	250
750	350	350
700	300	500
700	300	700
700	300	900
650	450	50
650	450	150
650	550	50
650	550	150
750	450	50
750	450	150
750	550	50
750	550	150
650	450	250
625	425	325
625	425	375
625	475	325
625	475	375
675	425	325
675	425	375
675	475	325
675	475	375
650	550	250
650	550	350
750	450	250
750	450	350
750	550	250
750	550	350
650	450	450
650	450	550
650	550	450
650	550	550
750	450	450
750	450	550
750	550	450
750	550	550
700	500	700
700	500	900
650	650	50
625	625	125
625	625	175
625	675	125
625	675	175
675	625	125
675	625	175
675	675	125
675	675	175
650	750	50
625	725	125
625	725	175
625	775	125
625	775	175
675	725	125
675	725	175
675	775	125
675	775	175
750	650	50
725	625	125
725	625	175
725	675	125
725	675	175
775	625	125
775	625	175
775	675	125
775	675	175
750	750	50
725	725	125
725	725	175
725	775	125
725	775	175
775	725	125
775	725	175
775	775	125
775	775	175
625	625	225
625	625	275
625	675	225
625	675	275
675	625	225
675	625	275
675	675	225
675	675	275
625	625	325
625	625	375
625	675	325
625	675	375
675	625	325
675	625	375
675	675	325
675	675	375
625	725	225
625	725	275
625	775	225
625	775	275
675	725	225
675	725	275
675	775	225
675	775	275
625	725	325
625	725	375
625	775	325
625	775	375
675	725	325
675	725	375
675	775	325
675	775	375
750	650	250
725	625	325
725	625	375
725	675	325
725	675	375
775	625	325
775	625	375
775	675	325
775	675	375
750	750	250
725	725	325
725	725	375
725	775	325
725	775	375
775	725	325
775	725	375
775	775	325
775	775	375
650	650	450
650	650	550
650	750	450
650	750	550
750	650	450
750	650	550
750	750	450
750	750	550
700	700	700
700	700	900
650	850	50
650	850	150
650	950	50
650	950	150
750	850	50
750	850	150
750	950	50
750	950	150
650	850	250
650	850	350
650	950	250
650	950	350
750	850	250
750	850	350
750	950	250
750	950	350
650	850	450
650	850	550
650	950	450
650	950	550
750	850	450
750	850	550
750	950	450
750	950	550
700	900	700
700	900	900
700	1100	100
650	1050	250
650	1050	350
650	1150	250
650	1150	350
750	1050	250
750	1050	350
750	1150	250
750	1150	350
700	1100	500
700	1100	700
700	1100	900
700	1300	100
650	1250	250
650	1250	350
650	1350	250
650	1350	350
750	1250	250
750	1250	350
750	1350	250
750	1350	350
700	1300	500
700	1300	700
700	1300	900
700	1500	100
650	1450	250
650	1450	350
650	1550	250
650	1550	350
750	1450	250
750	1450	350
750	1550	250
750	1550	350
700	1500	500
700	1500	700
700	1500	900
700	1700	100
650	1650	250
650	1650	350
650	1750	250
650	1750	350
750	1650	250
750	1650	350
750	1750	250
750	1750	350
700	1700	500
700	1700	700
700	1700	900
700	1900	100
700	1900	300
700	1900	500
700	1900	700
700	1900	900
900	100	100
900	100	300
900	100	500
900	100	700
900	100	900
850	250	50
850	250	150
850	350	50
850	350	150
950	250	50
950	250	150
950	350	50
950	350	150
850	250	250
850	250	350
850	350	250
850	350	350
950	250	250
950	250	350
950	350	250
950	350	350
900	300	500
900	300	700
900	300	900
850	450	50
850	450	150
850	550	50
850	550	150
950	450	50
925	425	125
925	425	175
925	475	125
925	475	175
975	425	125
975	425	175
975	475	125
975	475	175
950	550	50
925	525	125
925	525	175
925	575	125
925	575	175
975	525	125
975	525	175
975	575	125
975	575	175
825	425	225
825	425	275
825	475	225
825	475	275
875	425	225
875	425	275
875	475	225
875	475	275
850	450	350
850	550	250
850	550	350
925	425	225
925	425	275
925	475	225
925	475	275
975	425	225
975	425	275
975	475	225
975	475	275
925	425	325
925	425	375
925	475	325
925	475	375
975	425	325
975	425	375
975	475	325
975	475	375
925	525	225
925	525	275
925	575	225
925	575	275
975	525	225
975	525	275
975	575	225
975	575	275
925	525	325
925	525	375
925	575	325
925	575	375
975	525	325
975	525	375
975	575	325
975	575	375
850	450	450
850	450	550
850	550	450
850	550	550
950	450	450
950	450	550
950	550	450
950	550	550
900	500	700
900	500	900
850	650	50
825	625	125
825	625	175
825	675	125
825	675	175
875	625	125
875	625	175
875	675	125
875	675	175
850	750	50
825	725	125
825	725	175
825	775	125
825	775	175
875	725	125
875	725	175
875	775	125
875	775	175
950	650	50
925	625	125
925	625	175
925	675	125
925	675	175
975	625	125
975	625	175
975	675	125
975	675	175
950	750	50
925	725	125
925	725	175
925	775	125
925	775	175
975	725	125
975	725	175
975	775	125
975	775	175
850	650	250
825	625	325
825	625	375
825	675	325
825	675	375
875	625	325
875	625	375
875	675	325
875	675	375
850	750	250
825	725	325
825	725	375
825	775	325
825	775	375
875	725	325
875	725	375
875	775	325
875	775	375
925	625	225
925	625	275
925	675	225
925	675	275
975	625	225
975	625	275
975	675	225
975	675	275
925	625	325
925	625	375
925	675	325
925	675	375
975	625	325
962.5	612.5	362.5
962.5	612.5	387.5
962.5	637.5	362.5
962.5	637.5	387.5
987.5	612.5	362.5
987.5	612.5	387.5
987.5	637.5	362.5
987.5	637.5	387.5
975	675	325
962.5	662.5	362.5
962.5	662.5	387.5
962.5	687.5	362.5
962.5	687.5	387.5
987.5	662.5	362.5
987.5	662.5	387.5
987.5	687.5	362.5
987.5	687.5	387.5
925	725	225
925	725	275
925	775	225
925	775	275
975	725	225
975	725	275
975	775	225
975	775	275
925	725	325
925	725	375
925	775	325
925	775	375
975	725	325
962.5	712.5	362.5
962.5	712.5	387.5
962.5	737.5	362.5
962.5	737.5	387.5
987.5	712.5	362.5
987.5	712.5	387.5
987.5	737.5	362.5
987.5	737.5	387.5
975	775	325
962.5	762.5	362.5
962.5	762.5	387.5
962.5	787.5	362.5
962.5	787.5	387.5
987.5	762.5	362.5
987.5	762.5	387.5
987.5	787.5	362.5
987.5	787.5	387.5
850	650	450
850	650	550
850	750	450
850	750	550
925	625	425
925	625	475
925	675	425
925	675	475
975	625	425
975	625	475
975	675	425
975	675	475
950	650	550
925	725	425
925	725	475
925	775	425
925	775	475
975	725	425
975	725	475
975	775	425
975	775	475
950	750	550
900	700	700
900	700	900
850	850	50
850	850	150
850	950	50
850	950	150
950	850	50
925	825	125
925	825	175
925	875	125
925	875	175
975	825	125
975	825	175
975	875	125
975	875	175
950	950	50
950	950	150
850	850	250
850	850	350
850	950	250
850	950	350
925	825	225
925	825	275
925	875	225
925	875	275
975	825	225
975	825	275
975	875	225
975	875	275
925	825	325
925	825	375
925	875	325
925	875	375
975	825	325
975	825	375
975	875	325
975	875	375
925	925	225
925	925	275
925	975	225
925	975	275
975	925	225
975	925	275
975	975	225
975	975	275
925	925	325
925	925	375
925	975	325
925	975	375
975	925	325
975	925	375
975	975	325
975	975	375
850	850	450
850	850	550
850	950	450
850	950	550
950	850	450
950	850	550
950	950	450
950	950	550
900	900	700
900	900	900
900	1100	100
850	1050	250
850	1050	350
850	1150	250
850	1150	350
950	1050	250
950	1050	350
950	1150	250
950	1150	350
900	1100	500
900	1100	700
900	1100	900
850	1250	50
850	1250	150
850	1350	50
850	1350	150
950	1250	50
950	1250	150
950	1350	50
950	1350	150
850	1250	250
850	1250	350
850	1350	250
850	1350	350
950	1250	250
950	1250	350
950	1350	250
950	1350	350
850	1250	450
850	1250	550
850	1350	450
850	1350	550
950	1250	450
950	1250	550
950	1350	450
950	1350	550
900	1300	700
900	1300	900
850	1450	50
850	1450	150
850	1550	50
850	1550	150
950	1450	50
950	1450	150
950	1550	50
950	1550	150
850	1450	250
850	1450	350
850	1550	250
850	1550	350
950	1450	250
950	1450	350
925	1525	225
925	1525	275
925	1575	225
925	1575	275
975	1525	225
975	1525	275
975	1575	225
975	1575	275
950	1550	350
850	1450	450
850	1450	550
850	1550	450
850	1550	550
950	1450	450
950	1450	550
950	1550	450
950	1550	550
900	1500	700
900	1500	900
900	1700	100
850	1650	250
850	1650	350
850	1750	250
850	1750	350
950	1650	250
950	1650	350
950	1750	250
950	1750	350
850	1650	450
850	1650	550
850	1750	450
850	1750	550
[...]
CELL_DATA	2551
SCALARS model double 1
LOOKUP_TABLE table0
0.620807
-4.83838
-1.02915
0.319798
0.355597
0.630142
-2.48263
-1.37106
-1.23126
-0.577617
-0.0168623
4.92199
-3.45809
-3.22114
-1.5377
0.971796
-7.71487
-12.1126
-5.69318
-2.45974
0.322337
0.179527
-7.3652
-5.54409
-2.91044
-0.144511
1.88456
-5.50467
-4.96737
-3.07134
0.310489
-1.32053
-4.46576
-4.46252
-3.08132
0.639502
0.316608
-4.27078
-3.79081
-2.98621
0.30437
2.68504
-0.144778
-2.72949
-3.07214
0.0196156
1.16128
0.460282
-3.05048
-3.66423
0.479635
-1.10547
-0.0751724
1.52662
1.93457
0.421384
-4.4956
-5.89502
0.451599
1.78022
0.551472
2.22183
-2.37064
1.81153
2.38964
0.529735
2.64028
2.65346
3.20179
2.78432
-0.211704
5.00477
1.61797
2.15702
2.13893
-0.747547
2.52664
-1.13757
0.166171
0.924708
0.313816
0.75275
-0.6035
-0.843342
-0.123216
0.87166
-7.34
-4.84416
-2.06108
-1.17231
0.877361
-5.93806
-4.19011
-3.28816
-2.64689
0.0776708
3.1484
-3.56247
-5.15328
-4.34279
0.6052
-7.02586
-4.04687
2.99499
3.68578
0.683772
4.10641
-0.0341351
4.71385
4.67424
5.91847
-1.99289
11.5311
10.9808
20.1633
23.0328
32.4665
46.8222
40.84
20.8701
11.612
7.33344
4.12461
17.3163
2.7567
19.903
17.9828
65.0564
18.9661
67.8425
25.9739
43.164
29.23
45.4752
89.0542
80.0279
91.5331
81.6506
36.8473
17.0596
9.24005
6.43363
18.2954
28.0247
2.64954
16.3754
50.2059
45.8645
21.5437
28.7594
25.6083
13.1999
8.21548
1.19496
-8.92962
-20.5637
-11.7393
-24.819
-7.20831
-20.1138
-17.9409
-26.7473
-1.27363
5.99935
5.75533
-0.432475
-2.14998
-1.08537
3.44679
3.83488
0.430953
-0.552835
-1.15472
1.53971
1.79826
0.567026
2.08573
-2.8682
-2.19332
-1.31567
0.201366
1.89996
-7.38249
-6.63065
-4.47051
0.490043
-10.6932
3.58045
6.54548
5.06043
1.28059
-0.257279
-6.05851
12.493
12.6479
-3.2672
-5.36844
12.3491
7.30917
10.6287
8.40995
6.362
3.98495
24.6616
25.2387
79.1519
7.47754
36.8384
28.2071
89.2185
49.9323
74.6906
75.8986
79.831
80.6565
77.8143
78.9176
82.9308
83.6514
105.43
98.9325
60.2163
75.3739
114.234
109.646
47.9462
45.7381
53.8482
48.1114
50.0119
46.7492
55.6573
49.1699
19.6142
10.3248
34.7259
71.8649
101.695
80.9346
110.008
90.0023
116.495
99.4819
125.015
36.7045
82.3562
112.117
77.4147
109.288
100.5
126.934
93.4217
123.211
43.2154
95.2029
122.455
106.031
132.328
90.2786
118.747
101.838
128.857
42.367
106.627
133.96
97.3533
128.62
103.224
131.145
94.0616
125.837
135.556
143.315
141.65
148.253
144.223
151.397
150.262
156.286
140
138.514
142.904
140.991
144.828
142.58
147.73
145.053
142.69
148.669
138.801
146.543
151.133
156.6
147.056
154.366
143.063
141.129
141.16
139.986
147.847
145.155
145.886
143.976
148.736
150.145
147.223
152.987
149.684
150.503
147.527
153.319
149.971
148.738
153.303
150.025
151.35
148.867
153.661
150.329
151.706
149.168
63.5525
50.672
64.2119
51.2121
65.1882
51.7018
65.8186
52.2209
25.9211
13.2793
23.121
70.6752
8.76766
30.9705
24.9461
77.8543
8.54865
35.0174
95.085
91.0045
49.6411
64.4199
105.717
100.294
56.5878
72.0184
58.4098
53.8406
54.468
52.7376
60.2852
55.0961
56.0083
53.8626
22.6056
12.6754
-0.453906
4.68436
4.69554
-11.0955
-6.28946
12.4632
11.4998
-1.44502
0.691196
11.9539
13.6225
10.4625
0.125789
-3.15417
4.96262
4.86464
7.5883
10.1468
13.8788
21.7197
18.1457
18.7955
12.3818
9.03878
0.134375
2.97791
4.21423
-8.00673
-0.780664
21.4296
14.6261
7.13696
8.07232
17.7022
9.78872
6.45359
1.21387
-10.3722
-18.7803
-3.3196
-15.9013
-8.23551
-18.1581
-6.14897
-16.7569
-0.208716
1.19897
1.31292
0.582219
0.879781
-5.83626
-5.64971
-3.51189
0.359943
-4.46812
5.41884
6.23079
4.07289
0.823841
-5.03716
-0.159846
-1.39045
0.902942
-2.45731
0.489758
-18.2367
-5.01162
5.93292
21.6518
20.995
-4.58398
3.67236
23.4886
27.1936
7.9508
5.67379
4.71124
4.84354
22.7199
20.7578
65.9006
0.585611
2.43171
9.1336
13.5959
18.1545
-3.95793
2.57587
6.26747
11.0591
6.69596
17.941
41.3764
41.0279
64.1379
7.46903
32.1128
25.9566
52.8018
62.2567
73.3565
71.117
81.3207
63.127
74.6462
72.1643
82.6929
82.0331
102.446
111.363
59.0458
80.431
70.2806
89.7018
46.6938
70.8365
57.5345
79.8999
92.7011
93.5823
98.5627
98.5834
84.5925
87.3562
90.3089
92.2606
87.7609
99.4406
97.4314
105.477
72.7193
88.0665
81.0987
93.4368
103.174
102.488
106.587
105.012
94.4344
95.8213
97.5157
99.9914
42.76
36.8736
48.6321
39.7059
36.379
33.1709
40.9176
35.7499
14.5339
7.77239
31.797
78.4253
101.967
90.2674
111.932
61.8112
94.371
73.5669
104.476
35.4748
92.7862
115.674
85.0353
111.283
77.1306
108.872
70.1659
104.349
9.74617
41.3834
89.0118
51.218
101.848
16.6764
65.4865
19.6313
74.8669
10.9563
53.2531
104.69
41.5766
89.8803
19.1335
74.7186
11.7247
61.9067
136.812
151.998
149.736
154.459
151.871
151.581
149.461
154.038
151.594
137.101
155.048
152.417
153.202
151.345
154.621
152.133
152.751
151.04
136.976
149.413
145.095
155.285
111.553
129.631
117.952
134.669
146.653
142.298
150.171
144.903
130.779
145.308
144.445
146.363
145.433
142.899
142.298
143.951
143.284
133.844
146.848
145.901
146.869
145.92
144.413
143.731
144.434
143.749
146.645
156.265
137.806
150.094
119.218
135.734
111.992
130.351
150.57
145.263
146.619
142.413
134.241
147.248
146.304
147.25
146.306
144.817
144.139
144.82
144.141
130.753
147.016
146.098
146.307
145.545
144.611
143.956
143.91
143.41
58.1846
44.7102
59.2469
45.533
50.7271
45.937
51.0307
46.171
48.3301
44.5826
48.6032
44.8116
38.3294
51.6882
46.8629
51.6254
46.9433
49.2489
45.4934
49.2244
45.5769
39.0305
19.9299
10.6382
17.5952
57.7352
3.56187
22.2779
6.00281
36.2505
52.6312
16.2077
33.0229
20.4544
41.2728
6.71806
24.5625
-2.1302
10.6121
91.7042
100.314
52.0492
76.6425
88.4025
97.501
76.7876
89.4492
74.2029
87.2376
64.4848
80.1235
98.1745
96.8361
93.6185
93.4794
90.5778
91.0036
86.4774
88.0055
63.0605
74.2321
57.5866
70.386
58.3482
70.7637
53.252
67.0938
84.835
85.3793
82.3482
83.6177
78.8521
80.7479
76.4804
79.0537
57.0605
50.9806
53.5633
50.2577
48.9255
46.8087
46.6552
46.3785
19.6514
11.8807
-2.84421
14.1668
28.5349
10.581
24.9224
18.1186
34.9293
23.6338
36.6848
26.0446
18.6781
13.056
1.58287
15.794
10.6308
50.951
11.8329
49.9455
26.6458
91.6283
37.3017
53.8966
58.8202
66.8452
62.6576
72.4429
94.8193
88.575
54.7902
54.6134
58.0983
56.2744
58.8165
56.9279
62.5695
58.6612
24.4086
14.4121
11.1693
53.147
4.18664
27.5136
27.1909
95.6241
15.1129
59.8127
60.2169
66.1614
43.3143
52.262
94.9583
88.0481
74.2697
78.4619
67.5713
73.5035
78.415
82.684
71.7256
77.7116
74.3755
57.2647
55.2557
53.231
53.1547
61.6178
57.5289
57.2319
55.3042
22.2218
12.0587
2.0969
6.21447
6.20559
-5.18452
-3.12492
17.6036
13.2194
-1.24409
0.516988
17.8517
18.4213
12.5866
14.6559
19.747
19.8496
14.172
16.0018
7.06163
4.71767
0.904845
-4.70598
-7.87364
-4.17907
-1.97802
0.235147
-5.68454
-1.88166
0.145692
0.531938
-0.0188014
-4.94953
-2.08011
-3.03172
-2.01176
0.677868
-0.673807
-3.05703
-4.81024
-3.22308
0.119222
0.713764
0.34845
-11.2102
0.365007
3.90113
-0.19988
-10.3477
-6.87017
-24.6421
-2.67904
-6.68121
-3.12505
-7.45417
-15.2731
-16.8938
-16.4092
-18.0513
-9.72394
-11.8817
-10.5731
-12.6491
-17.8264
-18.2054
-18.8226
-19.0758
1.04924
-4.92371
-0.284974
-6.41456
-16.996
-18.4558
-19.9125
-20.8001
-11.0797
-13.5735
-13.0563
-15.1523
-20.578
-20.8118
-22.9318
-22.623
-41.9672
-40.0453
-39.2464
-43.5134
-45.7275
-48.7937
-54.7976
-55.0573
-63.1968
-61.3092
-36.5108
-35.7818
-39.3383
-37.9392
-44.1641
-41.562
-47.4447
-44.1086
-15.1542
-16.9624
-16.5197
-18.0289
-21.5486
-20.5727
-23.6301
-21.8317
-0.884642
1.00945
-1.16063
14.5767
9.01462
8.0084
4.93625
-7.97337
-18.9834
-15.0185
-23.8308
0.184266
10.035
3.58668
10.9993
3.2375
-11.4716
-23.8897
-7.86567
-22.8117
-11.6177
-12.1825
-38.0488
-19.5267
-44.1508
-40.0374
-64.6897
-46.182
-70.7077
-10.2779
-52.7722
-5.39727
-17.9546
-7.9323
-19.9508
-36.5239
-42.9369
-40.5897
-45.8622
-33.7386
-39.7439
-35.9657
-41.5854
-50.8795
-51.9393
-53.5556
-54.013
-7.76006
-18.0683
-4.16659
-14.8564
-40.4405
-43.9515
-35.2748
-39.8683
-35.1751
-40.925
-32.107
-38.4603
-52.7944
-53.3792
-49.2835
-50.7042
-69.2963
-79.6202
-74.8842
-83.9186
-96.5112
-100.835
-103.443
-105.862
-69.8855
-68.7655
-72.8319
-71.002
-84.5023
-86.3249
-87.8195
-88.8312
-75.4849
-82.6459
-69.6848
-78.1746
-104.76
-105.005
-97.9267
-99.9546
-72.564
-70.8673
-69.209
-68.3566
-87.6948
-88.8522
-84.0454
-86.1268
-27.4444
-27.4611
-26.9488
-27.0916
-39.6298
-33.0319
-39.3896
-32.7368
-2.02793
2.33488
-0.278624
-3.35333
-4.88358
-10.2318
-7.13054
-29.6514
-4.34418
-18.4587
4.73052
3.19464
7.3976
5.6088
-13.3026
-9.98065
-8.80764
-6.56294
-1.40509
-2.77067
1.49132
-0.436277
-10.0211
-9.24704
-6.67847
-6.66664
-0.19659
4.03584
2.65906
6.01388
4.44096
-2.67046
-2.51241
-0.486955
-0.607129
-43.0743
-44.0959
-35.8218
-38.5034
-64.8342
-60.0077
-56.3434
-53.8276
-30.4923
-28.5248
-26.7054
-25.6567
-41.2004
-36.6092
-37.1756
-33.5346
-23.6031
-23.6037
-11.9396
-14.2051
-42.7177
-38.9499
-40.6608
-29.2926
-15.8848
-14.898
-8.93544
-9.4631
-27.4685
-23.7807
-26.6776
-23.3935
-7.73029
-8.50258
-3.30722
-5.30978
-18.1854
-13.1834
-12.5115
-9.78535
4.68044
6.16866
-4.57609
-10.0794
1.39391
12.878
-4.43661
-3.97304
1.79414
19.5255
14.6561
51.3636
40.3323
69.5022
30.3605
44.5193
39.6258
51.9531
26.0728
41.8158
37.2984
50.1673
64.6356
67.4094
70.5021
72.1683
61.7554
65.3034
68.1981
70.4033
47.6932
74.0085
32.7079
31.2136
41.0502
36.2456
32.2878
31.1895
40.9762
36.0773
17.9145
12.38
17.6186
23.5292
42.8097
51.4597
66.3228
30.1336
48.8516
57.4244
72.5164
32.1182
63.7026
95.2611
80.179
108.646
71.8036
105.629
87.9316
119.144
20.5452
29.7976
50.3277
51.0137
68.9683
30.9134
52.099
52.0751
70.6767
38.6506
106.976
88.4722
109.787
126.02
126.144
102.207
119.736
138.434
134.251
72.5253
67.0273
78.3329
69.8335
73.104
66.9113
78.9198
69.7145
31.4956
17.3705
33.7785
79.7665
111.432
70.311
104.721
87.9538
122.265
78.9923
115.497
17.8509
58.4031
86.0605
38.1046
70.5864
67.2593
94.7168
46.4555
78.7391
42.6434
107.504
23.594
67.433
94.588
49.9218
81.5294
66.1245
93.6033
49.1594
80.6522
126.324
122.355
90.448
117.366
116.541
114.125
114.178
119.477
118.832
116.237
116.465
136.337
128.862
98.0161
108.576
75.0011
66.1191
68.7913
63.5933
76.5511
66.9807
71.1391
64.4281
29.8485
15.7445
5.23059
20.112
1.09346
0.307724
6.20338
23.9569
2.50391
1.02636
28.5468
35.2861
0.408741
13.6828
32.8998
40.024
1.62813
16.113
36.1625
36.3509
29.1117
32.0071
37.2447
37.0206
30.1021
32.6985
11.6604
7.06662
0.514398
-4.60026
-5.49833
-2.4853
-0.835679
0.0297762
0.984864
-8.05769
-4.92804
-2.52711
-0.521565
-1.04513
-1.09244
10.095
-0.347892
-2.15691
0.651207
-0.727919
5.0933
0.664501
2.84504
3.35493
-11.183
-7.89071
3.08488
3.44186
-11.2548
-8.01234
-7.9778
-9.2376
-15.882
-15.3166
-8.3762
-9.6213
-16.4262
-15.796
3.98661
-2.64717
-20.4791
-9.32519
-9.5485
-16.5325
-15.1121
-8.79457
-9.10891
-15.8936
-14.6143
-5.67462
-6.87516
-8.72158
-8.25709
-6.33668
-7.02053
-8.79553
-8.36974
-3.54576
-2.6308
-5.4957
-5.09905
-19.4822
-18.5439
-34.2243
-8.89061
-23.0349
-23.5362
-38.7695
-16.51
-22.1107
-60.3395
-46.8591
-88.2336
-31.975
-68.7876
-57.7361
-96.9737
-9.89259
-29.9732
-22.8888
-43.3178
-69.3646
-65.8883
-90.2256
-41.9202
-65.7703
-61.7242
-84.5366
-66.7297
-90.9922
-85.9736
-106.244
-73.5572
-97.1098
-93.105
-112.466
-105.011
-107.575
-114.538
-114.87
-110.378
-112.378
-119.985
-119.713
-113.174
-128.864
-132.637
-142.8
-125.137
-137.927
-145.645
-152.329
-125.741
-125.621
-135.074
-136.728
-133.054
-131.317
-142.606
-138.474
-72.9051
-85.0224
-87.8977
-96.7528
-68.8939
-81.8753
-83.3092
-93.2927
-103.875
-106.253
-112.243
-112.56
-101.912
-104.962
-110.137
-111.18
-117.066
-129.809
-136.677
-143.861
-113.251
-127.51
-131.968
-141.146
-130.945
-129.946
-139.699
-136.428
-129.282
-129.009
-137.863
-139.495
-46.9713
-42.2183
-56.9475
-46.8887
-48.2055
-43.4252
-58.6066
-48.0837
-10.9389
-4.41358
-26.7545
-56.3401
-116.429
-66.1928
-128.357
-72.4393
-133.415
-83.2883
-146.009
-26.7542
-66.0456
-131.59
-56.5849
-121.85
-81.9142
-145.69
-71.1314
-135.269
-37.0684
-80.6728
-126.316
-91.0746
-138.322
-76.0856
-116.929
-85.1617
-128.054
-32.0043
-88.3156
-136.496
-76.3815
-124.405
-82.0456
-128.161
-71.0463
-116.765
-195.224
-222.625
-208.879
-233.004
-215.058
-237.458
-229.302
-248.105
-221.884
-232.006
-230.929
-234.335
-233.108
-235.494
-234.362
-237.812
-236.532
-229.574
-235.517
-234.249
-235.577
-234.302
-239.013
-237.691
-239.072
-237.744
-234.344
-227.89
-242.329
-233.834
-210.152
-234.184
-199.924
-226.554
-230.405
-249.461
-219.805
-241.701
-230.602
-236.644
-235.372
-236.652
-235.38
-240.162
-238.836
-240.169
-238.843
-224.881
-235.806
-234.566
-234.793
-233.786
-239.314
-238.02
-238.295
-237.234
-243.403
-234.872
-237.474
-230.463
-208.053
-232.053
-222.386
-243.056
-197.87
-224.273
-211.498
-234.963
-233.528
-227.385
-241.511
-233.152
-227.575
-236.341
-234.996
-238.563
-237.245
-235.379
-234.261
-237.598
-236.507
-235.823
-229.158
-222.343
-244
-211.213
-235.96
-211.429
-235.811
-200.907
-228.076
-242.418
-234.054
-236.64
-229.85
-236.757
-229.916
-231.139
-225.804
-82.0485
-74.5812
-83.1423
-75.5207
-84.9382
-76.1575
-86.0733
-77.0927
-63.4149
-83.491
-75.8337
-82.2207
-74.9027
-86.4314
-77.4134
-85.0854
-76.4645
-63.4091
-84.7036
-75.9192
-85.8121
-76.8232
-83.2738
-75.7789
-85.3812
-76.6801
-64.791
-86.0793
-77.0571
-84.7774
-76.1317
-85.6382
-76.8993
-84.3352
-75.9708
-64.6563
-23.5738
-21.647
-23.701
-21.7847
-23.9142
-22.0012
-23.9793
-22.109
-5.05322
-14.4611
-47.2188
-97.3466
-23.8374
-72.1767
-57.5186
-105.394
-33.5023
-79.7824
-5.43758
-23.6623
-48.4781
-9.59805
-46.2574
-26.2382
-50.9102
-6.26221
-33.1647
-21.2989
-64.2902
-95.3455
-41.1703
-75.4124
-58.3042
-88.0704
-39.272
-70.383
-5.06171
-23.2318
-47.8534
-3.49676
-33.5022
-25.7155
-49.2452
-11.0482
-36.5226
-149.956
-164.328
-135.324
-154.135
-165.703
-176.351
-150.54
-165.927
-156.938
-151.522
-149.938
-146.536
-166.869
-159.43
-159.736
-154.14
-112.778
-137.325
-121.437
-131.492
-116.386
-127.29
-127.981
-137.764
-122.92
-133.552
-118.603
-125.787
-149.654
-101.593
-129.723
-140.168
-137.789
-141.4
-141.785
-138.538
-139.283
-145.306
-145.579
-142.443
-143.075
-143.238
-142.551
-141.092
-140.651
-146.232
-145.459
-144.085
-143.559
-150.086
-145.323
-135.66
-134.397
-153.884
-164.867
-140.462
-155.706
-148.76
-161.965
-136.028
-153.077
-162.674
-156.448
-156.449
-151.871
-160.881
-155.529
-154.798
-151.03
-123.175
-145.207
-98.343
-125.788
-118.557
-140.981
-94.5942
-121.971
-148.948
-144.535
-134.29
-133.426
-146.082
-142.451
-131.679
-131.484
-54.7726
-49.5956
-53.4045
-48.6128
-56.2077
-50.7593
-54.7947
-49.7575
-41.7087
-49.2962
-44.667
-47.2885
-43.6026
-50.5824
-45.7166
-49.1084
-44.6532
-35.987
-56.6022
-51.3691
-55.2368
-50.3756
-56.4817
-51.3724
-55.1122
-50.3751
-43.1887
-50.6306
-45.8256
-49.1391
-44.7456
-50.4683
-45.8035
-48.9771
-44.7235
-37.2711
-5.69027
0.616191
-5.42101
2.73734
3.57258
18.5141
-3.97348
0.457227
-0.852471
16.5513
0.654253
8.29481
22.3003
26.8953
-3.78377
5.25546
19.8881
24.7615
21.2976
24.5097
34.6907
35.077
16.9875
21.134
31.8388
32.7722
57.0411
62.6563
0.505394
10.6002
24.1609
30.0736
-0.783472
9.61958
22.0515
28.5892
18.9261
22.655
33.7623
34.2665
17.8369
21.7878
32.3834
33.2186
53.3039
58.0061
18.6789
19.1876
28.3844
24.4622
18.1776
18.6773
27.1676
23.7034
13.9134
9.46446
19.9715
31.3547
60.1247
58.9786
82.6687
31.9026
61.3822
60.874
84.2498
39.0425
76.0853
106.986
88.3873
117.966
78.4497
109.457
91.4588
120.577
17.9678
29.7878
61.4796
59.4215
84.9334
26.8491
59.4234
54.1954
81.8538
34.7559
76.0079
110.069
91.9274
121.9
68.1306
103.355
82.5719
114.722
111.524
125.198
122.375
134.506
113.411
126.77
124.182
136.019
131.261
131.063
136.27
135.751
131.83
131.551
136.805
136.216
141.085
138.525
115.147
129.08
125.923
138.335
112.517
127.799
123.085
136.922
131.934
131.424
136.909
136.096
130.545
130.673
135.465
135.306
134.256
133.946
60.7049
50.9455
69.4502
55.1106
60.2197
50.7192
68.1889
54.546
29.1851
16.0948
41.1373
110.512
21.5787
65.7498
90.1869
47.6907
76.1606
64.4048
89.2318
45.8361
75.0877
35.3791
91.1011
120.246
80.1143
112.547
85.3202
117.151
75.78
110.112
17.7514
65.7141
93.0496
44.7003
77.2571
61.4893
90.1566
41.8728
74.9281
137.198
131.326
96.8784
110.108
127.759
125.512
88.7068
104.492
78.3721
69.4207
74.0716
67.9192
76.8501
68.7932
72.8164
67.3971
29.294
15.0722
4.6496
22.0058
1.92151
2.50863
3.8786
20.3685
-0.255524
1.53678
32.8366
43.9038
3.90328
19.3429
30.8201
40.8888
1.90706
17.129
38.474
37.7522
31.0706
33.4002
37.2663
36.9566
30.0052
32.6591
11.0949
6.56026
-0.309455
-1.33706
-3.16527
-2.44054
-1.16505
0.0926642
0.884746
-0.819056
-3.11921
-2.88233
0.371776
-1.09423
5.8791
-4.63722
0.50981
-4.49054
5.98552
-4.83507
-5.37554
-6.17325
-4.41595
-3.58886
-3.74893
-26.4815
-17.7234
-58.7364
-2.14285
-12.2
-10.6815
-40.1088
-41.317
-58.7429
-98.4331
-93.453
-30.878
-58.6437
-59.9736
-63.4507
-64.066
-56.1971
-58.0222
-60.8861
-62.0453
-68.5324
-73.4379
-80.3165
-82.7018
-62.7638
-69.0236
-73.6675
-77.8511
-75.254
-74.9457
-81.0299
-79.273
-68.6022
-69.7578
-74.1632
-73.9677
-40.5756
-38.5818
-45.7115
-40.8199
-37.443
-37.0858
-41.0742
-39.0554
-10.3389
-5.50905
-30.7122
-70.7903
-98.1758
-78.2905
-106.676
-56.2219
-85.664
-63.6831
-93.7592
-28.8424
-87.2543
-11.6314
-43.3186
-72.1868
-46.7308
-75.7224
-27.747
-60.2537
-29.433
-62.7398
-10.847
-44.9018
-73.1861
-38.9297
-68.4318
-27.8142
-59.6838
-23.1898
-55.3881
-148.863
-158.027
-157.115
-164.589
-136.783
-149.29
-144.718
-155.687
-157.085
-154.232
-161.35
-158.143
-151.013
-150.022
-155.171
-153.6
-158.695
-165.402
-154.847
-163.597
-146.124
-156.223
-142.616
-154.562
-162.816
-159.759
-161.292
-159.04
-156.225
-154.899
-154.795
-154.227
-122.228
-138.729
-130.546
-145.682
-106.202
-126.78
-113.66
-133.317
-143.162
-142.904
-148.211
-146.913
-134.404
-136.28
-139.38
-140.25
-128.667
-143.939
-122.286
-139.106
-111.175
-131.211
-105.281
-126.601
-144.115
-142.52
-141.354
-140.508
-135.611
-136.196
-132.98
-134.253
-67.2928
-56.8414
-67.5979
-56.9096
-60.4506
-53.1633
-59.8828
-52.9708
-13.0852
-5.64787
-17.5369
-53.6884
-2.71659
-25.4301
-6.2701
-32.0921
1.1145
-16.1075
-103.117
-114.337
-97.5421
-110.158
-80.7591
-97.5626
-90.1348
-104.598
-74.8518
-92.7904
-112.02
-110.587
-103.011
-103.811
-108.94
-108.381
-100.204
-101.751
-91.9874
-102.256
-85.2108
-97.4787
-83.9382
-96.5886
-77.6154
-92.0474
-111.031
-110.567
-108.437
-108.672
-107.423
-107.898
-104.903
-106.043
-79.1851
-94.3296
-72.3691
-89.2746
-71.1379
-88.4973
-65.0873
-83.7968
-105.204
-105.326
-96.6799
-98.6567
-101.473
-102.591
-93.0696
-95.9796
-52.036
-42.2176
-42.7736
-37.3956
-46.1034
-40.0701
-39.3565
-35.7173
-5.55725
-1.3031
-1.14596
-3.77717
-1.74488
7.94789
-0.341407
-5.29436
-1.83681
8.47738
-5.76656
-0.454439
9.56635
11.2698
-7.15138
-1.95472
6.74783
8.97639
5.83218
8.1498
14.6446
14.9446
4.72041
7.24126
13.2008
13.8428
25.629
33.2455
-6.01553
3.67278
6.43621
11.6375
12.7035
3.2403
6.04595
11.0437
12.2262
20.4551
29.3606
15.7646
17.5839
23.5853
22.1294
15.5885
17.4566
22.6737
21.8595
10.0515
5.97886
10.7356
42.8072
24.0399
60.2546
81.8754
69.9826
90.341
44.1305
70.0394
53.1269
78.269
2.38966
27.982
8.38733
33.6546
72.3716
89.238
99.9588
103.338
64.8574
75.7965
71.5348
81.9695
59.0375
71.3924
65.6922
77.5248
85.0597
86.1558
88.7698
89.6193
81.8246
83.6488
85.5115
87.0958
63.2319
79.1061
66.2447
64.7719
70.5058
66.8465
62.33
63.3988
66.251
65.3107
22.4109
11.2088
27.0448
96.4779
13.4762
62.0443
10.1413
52.5448
2.65083
30.5366
93.1661
93.3809
81.1334
86.7134
74.9405
82.2097
75.9053
82.8901
69.997
78.5352
74.7637
77.0561
83.4867
74.9115
82.2921
70.3734
78.476
68.3888
77.366
70.5881
39.416
55.8598
65.973
62.3694
61.1945
59.8473
60.8165
59.8771
56.6036
57.4856
20.3335
10.0997
1.12225
20.305
18.9162
-2.88847
2.06076
11.702
12.4861
-6.84492
-0.984877
21.1269
20.8194
14.8455
16.7737
19.3677
19.7852
13.4323
15.812
5.1257
3.15126
0.870743
-3.99303
-9.07439
-5.51402
-3.21795
0.268337
0.475618
1.59736
-0.779055
-2.09849
0.717193
-9.44187
-2.2666
-2.32171
-2.76728
-0.326545
-3.20223
6.61283
-15.5382
10.5919
12.6382
7.16217
10.022
16.876
17.5282
13.5507
14.9702
4.46008
11.9563
2.74831
10.437
-9.3143
-11.3491
-9.78289
-11.5881
-7.24793
-10.0041