# vtk DataFile Version 3.0
Gravity inversion using rectangular prisms
ASCII
DATASET UNSTRUCTURED_GRID

POINTS	1452	double
100	100	100
100	100	300
100	100	500
100	100	700
100	100	900
100	300	100
100	300	300
100	300	500
100	300	700
100	300	900
100	500	100
100	500	300
100	500	500
100	500	700
100	500	900
100	700	100
100	700	300
100	700	500
100	700	700
100	700	900
100	900	100
100	900	300
100	900	500
100	900	700
100	900	900
100	1100	100
100	1100	300
100	1100	500
100	1100	700
100	1100	900
100	1300	100
100	1300	300
100	1300	500
100	1300	700
100	1300	900
100	1500	100
100	1500	300
100	1500	500
100	1500	700
100	1500	900
100	1700	100
100	1700	300
100	1700	500
100	1700	700
100	1700	900
100	1900	100
100	1900	300
100	1900	500
100	1900	700
100	1900	900
300	100	100
300	100	300
300	100	500
300	100	700
300	100	900
300	300	100
300	300	300
300	300	500
300	300	700
300	300	900
300	500	100
300	500	300
300	500	500
300	500	700
300	500	900
300	700	100
300	700	300
250	650	450
250	650	550
250	750	450
250	750	550
350	650	450
350	650	550
350	750	450
350	750	550
300	700	700
300	700	900
300	900	100
300	900	300
300	900	500
300	900	700
300	900	900
300	1100	100
300	1100	300
300	1100	500
300	1100	700
300	1100	900
300	1300	100
300	1300	300
300	1300	500
300	1300	700
300	1300	900
300	1500	100
300	1500	300
300	1500	500
300	1500	700
300	1500	900
300	1700	100
300	1700	300
300	1700	500
300	1700	700
300	1700	900
300	1900	100
300	1900	300
300	1900	500
300	1900	700
300	1900	900
500	100	100
500	100	300
500	100	500
500	100	700
500	100	900
500	300	100
500	300	300
500	300	500
500	300	700
500	300	900
500	500	100
450	450	250
450	450	350
450	550	250
450	550	350
550	450	250
550	450	350
550	550	250
550	550	350
450	450	450
450	450	550
450	550	450
450	550	550
550	450	450
550	450	550
550	550	450
550	550	550
500	500	700
500	500	900
450	650	50
450	650	150
450	750	50
450	750	150
550	650	50
550	650	150
550	750	50
550	750	150
450	650	250
450	650	350
450	750	250
450	750	350
525	625	225
525	625	275
525	675	225
525	675	275
575	625	225
575	625	275
575	675	225
575	675	275
550	650	350
525	725	225
525	725	275
525	775	225
525	775	275
575	725	225
575	725	275
575	775	225
575	775	275
550	750	350
450	650	450
450	650	550
450	750	450
450	750	550
550	650	450
550	650	550
550	750	450
550	750	550
500	700	700
500	700	900
500	900	100
450	850	250
450	850	350
450	950	250
450	950	350
550	850	250
550	850	350
550	950	250
550	950	350
450	850	450
450	850	550
450	950	450
450	950	550
550	850	450
550	850	550
550	950	450
550	950	550
500	900	700
500	900	900
500	1100	100
500	1100	300
500	1100	500
500	1100	700
500	1100	900
500	1300	100
500	1300	300
500	1300	500
500	1300	700
500	1300	900
500	1500	100
500	1500	300
500	1500	500
500	1500	700
500	1500	900
500	1700	100
500	1700	300
500	1700	500
500	1700	700
500	1700	900
500	1900	100
500	1900	300
500	1900	500
500	1900	700
500	1900	900
700	100	100
700	100	300
700	100	500
700	100	700
700	100	900
700	300	100
700	300	300
650	250	450
650	250	550
650	350	450
650	350	550
750	250	450
750	250	550
750	350	450
750	350	550
700	300	700
700	300	900
650	450	50
650	450	150
650	550	50
650	550	150
750	450	50
750	450	150
750	550	50
750	550	150
650	450	250
650	450	350
625	525	225
625	525	275
625	575	225
625	575	275
675	525	225
675	525	275
675	575	225
675	575	275
650	550	350
750	450	250
750	450	350
725	525	225
725	525	275
725	575	225
725	575	275
775	525	225
775	525	275
775	575	225
775	575	275
750	550	350
650	450	450
650	450	550
650	550	450
650	550	550
750	450	450
750	450	550
750	550	450
750	550	550
650	450	650
650	450	750
650	550	650
650	550	750
750	450	650
750	450	750
750	550	650
750	550	750
700	500	900
650	650	50
625	625	125
625	625	175
625	675	125
625	675	175
675	625	125
675	625	175
675	675	125
675	675	175
650	750	50
625	725	125
625	725	175
625	775	125
625	775	175
675	725	125
675	725	175
675	775	125
675	775	175
725	625	25
725	625	75
725	675	25
725	675	75
775	625	25
775	625	75
775	675	25
775	675	75
725	625	125
725	625	175
725	675	125
725	675	175
775	625	125
775	625	175
775	675	125
775	675	175
725	725	25
725	725	75
725	775	25
725	775	75
775	725	25
775	725	75
775	775	25
775	775	75
725	725	125
725	725	175
725	775	125
725	775	175
775	725	125
775	725	175
775	775	125
775	775	175
650	650	250
650	650	350
650	750	250
650	750	350
750	650	250
750	650	350
750	750	250
750	750	350
650	650	450
650	650	550
650	750	450
650	750	550
750	650	450
750	650	550
750	750	450
750	750	550
700	700	700
700	700	900
650	850	50
650	850	150
650	950	50
650	950	150
750	850	50
750	850	150
750	950	50
750	950	150
625	825	225
625	825	275
625	875	225
625	875	275
675	825	225
675	825	275
675	875	225
675	875	275
650	850	350
650	950	250
650	950	350
725	825	225
725	825	275
725	875	225
725	875	275
775	825	225
775	825	275
775	875	225
775	875	275
750	850	350
725	925	225
725	925	275
725	975	225
725	975	275
775	925	225
775	925	275
775	975	225
775	975	275
750	950	350
650	850	450
650	850	550
650	950	450
650	950	550
750	850	450
750	850	550
750	950	450
750	950	550
700	900	700
700	900	900
700	1100	100
650	1050	250
650	1050	350
650	1150	250
650	1150	350
750	1050	250
750	1050	350
750	1150	250
750	1150	350
650	1050	450
650	1050	550
650	1150	450
650	1150	550
750	1050	450
750	1050	550
750	1150	450
750	1150	550
700	1100	700
700	1100	900
700	1300	100
650	1250	250
650	1250	350
650	1350	250
650	1350	350
750	1250	250
750	1250	350
750	1350	250
750	1350	350
650	1250	450
650	1250	550
650	1350	450
650	1350	550
750	1250	450
750	1250	550
750	1350	450
750	1350	550
700	1300	700
700	1300	900
700	1500	100
700	1500	300
700	1500	500
700	1500	700
700	1500	900
700	1700	100
700	1700	300
700	1700	500
700	1700	700
700	1700	900
700	1900	100
700	1900	300
700	1900	500
700	1900	700
700	1900	900
900	100	100
900	100	300
900	100	500
900	100	700
900	100	900
900	300	100
900	300	300
900	300	500
900	300	700
900	300	900
850	450	50
850	450	150
850	550	50
850	550	150
950	450	50
950	450	150
950	550	50
950	550	150
850	450	250
850	450	350
825	525	225
825	525	275
825	575	225
825	575	275
875	525	225
875	525	275
875	575	225
875	575	275
850	550	350
950	450	250
950	450	350
950	550	250
950	550	350
850	450	450
850	450	550
850	550	450
850	550	550
950	450	450
950	450	550
950	550	450
950	550	550
850	450	650
850	450	750
850	550	650
850	550	750
950	450	650
950	450	750
950	550	650
950	550	750
900	500	900
850	650	50
825	625	125
825	625	175
825	675	125
825	675	175
875	625	125
875	625	175
875	675	125
875	675	175
850	750	50
825	725	125
825	725	175
825	775	125
825	775	175
875	725	125
875	725	175
875	775	125
875	775	175
950	650	50
950	650	150
950	750	50
950	750	150
850	650	250
850	650	350
850	750	250
850	750	350
950	650	250
950	650	350
950	750	250
950	750	350
850	650	450
850	650	550
850	750	450
850	750	550
950	650	450
950	650	550
950	750	450
950	750	550
850	650	650
850	650	750
850	750	650
850	750	750
950	650	650
950	650	750
950	750	650
950	750	750
900	700	900
850	850	50
850	850	150
850	950	50
850	950	150
950	850	50
950	850	150
950	950	50
950	950	150
825	825	225
825	825	275
825	875	225
825	875	275
875	825	225
875	825	275
875	875	225
875	875	275
850	850	350
850	950	250
850	950	350
950	850	250
950	850	350
950	950	250
950	950	350
850	850	450
850	850	550
850	950	450
850	950	550
950	850	450
950	850	550
950	950	450
950	950	550
900	900	700
900	900	900
900	1100	100
850	1050	250
850	1050	350
850	1150	250
850	1150	350
950	1050	250
950	1050	350
950	1150	250
950	1150	350
850	1050	450
850	1050	550
850	1150	450
850	1150	550
950	1050	450
950	1050	550
950	1150	450
950	1150	550
900	1100	700
900	1100	900
850	1250	50
850	1250	150
850	1350	50
850	1350	150
950	1250	50
950	1250	150
950	1350	50
950	1350	150
850	1250	250
850	1250	350
850	1350	250
850	1350	350
950	1250	250
950	1250	350
950	1350	250
950	1350	350
850	1250	450
850	1250	550
850	1350	450
850	1350	550
950	1250	450
950	1250	550
950	1350	450
950	1350	550
900	1300	700
900	1300	900
900	1500	100
850	1450	250
850	1450	350
850	1550	250
850	1550	350
950	1450	250
950	1450	350
950	1550	250
950	1550	350
850	1450	450
850	1450	550
850	1550	450
850	1550	550
950	1450	450
950	1450	550
950	1550	450
950	1550	550
900	1500	700
900	1500	900
900	1700	100
850	1650	250
850	1650	350
850	1750	250
850	1750	350
950	1650	250
950	1650	350
950	1750	250
950	1750	350
850	1650	450
850	1650	550
850	1750	450
850	1750	550
950	1650	450
950	1650	550
950	1750	450
950	1750	550
900	1700	700
900	1700	900
900	1900	100
900	1900	300
900	1900	500
900	1900	700
900	1900	900
1100	100	100
1100	100	300
1100	100	500
1100	100	700
1100	100	900
1100	300	100
1100	300	300
1100	300	500
1100	300	700
1100	300	900
1050	450	50
1050	450	150
1050	550	50
1050	550	150
1150	450	50
1150	450	150
1150	550	50
1150	550	150
1050	450	250
1050	450	350
1050	550	250
1050	550	350
1150	450	250
1150	450	350
1150	550	250
1150	550	350
1050	450	450
1050	450	550
1050	550	450
1050	550	550
1150	450	450
1150	450	550
1150	550	450
1150	550	550
1100	500	700
1100	500	900
1050	650	50
1050	650	150
1050	750	50
1050	750	150
1150	650	50
1150	650	150
1150	750	50
1150	750	150
1050	650	250
1050	650	350
1050	750	250
1050	750	350
1150	650	250
1150	650	350
1150	750	250
1150	750	350
1050	650	450
1050	650	550
1050	750	450
1050	750	550
1150	650	450
1150	650	550
1150	750	450
1150	750	550
1050	650	650
1050	650	750
1050	750	650
1050	750	750
1150	650	650
1150	650	750
1150	750	650
1150	750	750
1100	700	900
1050	850	50
1050	850	150
1050	950	50
1050	950	150
1150	850	50
1150	850	150
1150	950	50
1150	950	150
1050	850	250
1050	850	350
1050	950	250
1050	950	350
1150	850	250
1150	850	350
1150	950	250
1150	950	350
1050	850	450
1050	850	550
1050	950	450
1050	950	550
1150	850	450
1150	850	550
1150	950	450
1150	950	550
1050	850	650
1050	850	750
1050	950	650
1050	950	750
1150	850	650
1150	850	750
1150	950	650
1150	950	750
1100	900	900
1100	1100	100
1050	1050	250
1050	1050	350
1050	1150	250
1050	1150	350
1150	1050	250
1150	1050	350
1150	1150	250
1150	1150	350
1050	1050	450
1050	1050	550
1050	1150	450
1050	1150	550
1150	1050	450
1150	1050	550
1150	1150	450
1150	1150	550
1100	1100	700
1100	1100	900
1050	1250	50
1050	1250	150
1050	1350	50
1025	1325	125
1025	1325	175
1025	1375	125
[...]
CELL_DATA	1452
SCALARS model double 1
LOOKUP_TABLE table0
-0.875725
15.8167
-4.74473
-17.5849
-20.0889
-0.574248
6.69384
-7.47935
-14.1773
-15.2539
-0.472193
2.13926
-17.2596
-14.1672
-10.8459
-0.873494
3.94389
-18.6325
-14.3552
-8.44837
-0.0255525
-1.03829
-20.1764
-13.5776
-8.33404
-0.484631
3.38948
-9.50017
-11.3503
-9.39301
0.0642776
-5.84582
-2.68969
-9.36431
-10.3306
0.294545
-10.3914
2.45635
-7.05541
-10.5013
0.0614813
-1.25405
5.83079
-5.7604
-10.4154
0.218998
-5.38275
-1.78147
-8.74226
-11.454
-0.669625
4.11974
-20.1861
-21.8194
-18.8817
0.401703
-9.52884
-17.0785
-11.7338
-9.60472
-0.681786
-7.23355
-0.823398
0.905661
1.46799
-2.40006
-5.67616
4.09231
5.0141
4.44584
5.36078
13.8105
12.6771
13.8533
12.9411
8.03664
7.74112
0.0771805
-21.556
-4.83625
4.00838
6.16552
0.498522
-14.3985
-10.6266
-2.43912
0.511298
0.234605
-6.32737
-4.01346
-5.49306
-4.67495
-1.29558
3.84769
1.12513
-6.4759
-8.48459
-0.841445
1.89577
4.12201
-6.85482
-11.3133
0.271691
-2.25386
3.84456
-7.19346
-12.2698
-1.55949
20.3225
-20.8644
-17.999
-12.7704
-0.504805
-9.48078
0.233463
1.84293
1.8504
-2.12392
-4.29689
-1.17106
13.0753
4.02585
16.829
3.56579
85.0213
28.8539
38.9886
41.945
46.7797
48.2469
49.1737
49.9711
57.6224
56.3116
33.8023
21.0365
-10.2851
23.4475
-7.38843
21.9188
-7.02143
77.4282
-4.00125
73.0056
43.5914
15.089
38.3324
17.5857
88.426
93.9988
99.9478
103.94
107.919
112.249
119.074
121.978
66.5157
100.551
104.41
93.1596
99.3741
119.355
122.103
111.785
116.903
68.8522
72.1428
78.1852
71.6696
77.9157
86.3063
84.1564
85.8995
84.5756
48.8413
32.3283
-1.51929
-2.21148
-5.13475
-17.7672
-11.563
73.9762
25.1044
9.34274
0.302854
42.4408
43.8803
37.0165
39.8498
53.5054
51.7552
47.3855
47.6235
38.4048
29.2379
-0.136471
-19.8743
7.63492
19.26
18.6436
-2.07613
-18.4751
4.4919
8.13609
8.42578
-1.09631
-13.5199
1.12741
0.4102
-1.30597
0.157765
-9.50853
0.238205
-6.80534
-10.9704
0.976872
-15.9434
1.89111
-7.77025
-13.817
-0.83097
-1.04888
-19.2094
-12.076
-6.77113
-2.25359
-11.2655
12.5651
14.8052
25.1275
24.3591
14.4666
16.4348
26.8716
25.9745
17.8485
9.41567
-6.42454
31.5232
-0.546826
94.1406
-8.51097
40.5009
0.124266
108.66
63.1218
16.7004
108.364
114.245
125.994
131.226
128.77
131.035
145.807
147.677
76.7974
83.1548
36.9547
145.45
150.491
163.027
167.698
145.941
150.901
163.443
168.056
105.37
91.1351
98.1611
104.152
103.265
94.2396
100.211
108.449
106.045
68.2496
69.2125
70.8633
71.7002
68.4181
69.4628
71.0752
71.9584
31.6217
6.22104
83.366
102.106
108.402
127.563
119.071
135.602
144.027
160.959
7.12077
110.563
129.82
93.3126
118.762
146.52
162.619
123.434
148.862
4.97275
6.76145
6.54819
16.609
4.29443
7.66134
5.53309
17.1251
128.002
145.489
155.24
172.837
126.089
144.274
151.453
170.803
5.79479
18.2239
3.74512
13.7398
4.92746
19.5851
3.57434
15.427
158.66
173.773
133.864
157.468
154.111
168.904
128.477
152.007
161.646
126.732
152.929
129.762
186.249
152.325
172.958
153.977
129.101
90.2485
126.804
95.917
138.311
97.6404
134.936
102.535
76.8577
45.5802
4.51487
87.5981
-0.173811
26.9959
5.15603
97.1711
-3.16163
31.4817
125.039
127.212
108.379
114.571
145.207
144.153
127.219
130.803
82.5459
31.588
22.864
155.651
156.335
129.704
136.184
153.194
154.611
127.465
134.609
111.257
68.0622
63.7771
39.1725
42.1788
68.7181
65.4304
40.9251
44.3836
41.0717
95.532
93.8757
84.0738
88.9834
99.1744
96.1498
86.7413
90.6377
65.7831
44.5123
-1.76919
-31.6286
-48.7587
-45.4306
-56.626
-28.5867
-45.0202
-39.608
-55.6517
31.5355
30.4835
24.4454
25.4611
36.0571
33.9793
29.5712
29.239
44.8055
36.375
-1.43944
-32.4567
-27.2132
-18.8337
-18.0941
-16.3471
-21.0861
4.88317
-6.87608
23.7923
24.4473
23.4119
24.5009
34.1223
31.9572
34.1919
32.1974
35.1901
27.3767
-1.29415
-8.10502
29.9377
21.1521
12.9814
0.756535
-18.1299
3.21217
-1.84319
-7.09682
0.823372
-0.716354
-1.06141
-9.30356
-14.553
-0.361656
1.656
-9.77349
-5.42712
-4.98552
-1.4323
-3.21065
14.6913
12.2946
4.20079
-4.4206
28.6222
2.04067
85.4233
-2.94721
-1.29759
0.90869
37.7792
69.8697
35.6682
132.387
134.52
147.735
149.596
120.764
126.981
135.844
141.814
92.5515
20.0452
11.3684
55.2796
47.8524
70.8534
72.0473
81.8872
77.0932
57.3328
62.4615
62.5021
64.761
46.4732
46.6149
48.9653
48.6465
43.9038
44.5331
46.2643
46.4886
17.7117
9.37907
119.5
134.117
142.6
156.9
92.4517
116.008
110.969
136.453
11.3354
145.507
154.171
120.787
137.479
114.47
133.516
94.9584
118.516
5.18448
45.6976
3.06063
46.7341
155.693
130.575
143.093
130.685
79.3277
69.1505
74.7884
67.6819
113.584
81.463
109.839
84.2307
64.6347
46.6412
62.3067
49.0799
65.4219
65.7506
66.1778
66.444
59.588
61.1797
60.2204
61.8036
28.4759
3.49623
77.2925
-2.38916
22.8374
0.114832
35.2799
-4.50632
9.15045
134.9
133.065
118.564
121.104
122.19
124.648
107.389
113.448
95.7795
31.7773
40.4963
46.2817
46.0995
5.20872
13.7368
73.2503
68.1176
65.3031
65.2362
53.4548
55.4777
51.1971
55.3577
45.676
34.8189
-4.86613
-21.5467
-25.2823
-18.5751
-29.7702
-19.4045
-20.7469
7.89185
-6.03524
47.6269
48.3509
51.3086
51.0148
48.0256
48.9734
53.4849
52.4754
54.6964
41.7702
-6.6209
28.781
-1.00361
54.983
-2.17932
71.2032
9.10026
79.4647
23.857
12.6288
53.1294
40.6529
60.4089
54.077
112.104
96.1821
85.7472
89.5
90.4103
92.5973
98.5056
98.3706
104.725
102.085
70.4308
45.0888
12.3594
54.8585
44.6601
13.0327
17.3525
111.364
97.3397
59.0307
58.1125
83.1501
83.3632
73.0614
76.676
96.6634
92.8086
85.9909
85.8921
56.9291
31.0843
2.38894
-15.3473
-18.5115
-22.3925
-27.3132
7.49083
-3.5857
-29.6504
-28.5858
17.7153
15.8279
6.72517
7.63229
21.699
18.4527
9.09967
9.64811
10.125
0.308417
3.27589
-30.51
-6.78726
-8.54022
-13.0916
-0.0999052
-3.25082
13.7671
-0.488129
-7.25894
-0.28624
-4.22419
-2.84045
-8.47658
-10.7861
-1.14914
-5.51012
-2.56704
-4.88433
-1.36704
-20.305
-6.67895
-21.6583
2.16624
-4.83396
-0.0720765
-8.38523
-16.7153
-35.307
-53.4917
-66.3001
-14.421
-18.713
-15.1504
-19.2218
-28.3349
-26.0168
-40.3648
-32.629
-19.0376
-14.2888
-2.81861
0.480933
-2.21561
5.2098
-12.1586
-59.06
-11.2543
-51.9885
-4.74406
-11.393
-10.0201
-15.3366
-87.6193
-91.0753
-95.951
-96.6052
-8.53313
-6.48033
-11.6133
-9.26252
-70.899
-51.5411
-72.1261
-53.342
-16.76
-17.7986
-16.0571
-17.2278
-25.096
-24.0447
-24.4739
-23.5233
-11.9138
-3.13485
0.749351
-1.67776
-2.21406
-4.90397
-31.3593
-0.457116
-25.1317
-18.6264
-19.9861
-25.8788
-20.3019
-82.3438
-83.3604
-58.3449
-55.5694
-24.0752
-27.6571
-18.6428
-23.8599
-49.5345
-40.9782
-33.2548
-31.5022
-1.09658
-0.799318
1.02664
0.982697
-6.73477
-5.32085
-4.51903
-3.50565
3.62875
-2.80094
-20.6291
-9.87991
14.2188
31.2208
-29.7973
-15.2201
16.2061
42.8959
34.4722
37.8313
54.303
51.8286
31.1262
36.0025
51.7436
50.2073
42.261
30.8828
-3.3265
75.0028
16.3207
86.1483
101.876
97.3634
115.94
100.439
117.083
108.856
129.789
4.81889
85.7891
17.5085
107.256
117.148
114.398
129.155
103.131
113.742
110.645
125.922
88.437
95.3368
148.944
137.967
93.0297
110.193
157.83
156.727
132.565
137.433
145.169
145.505
133.789
136.731
149.624
147.413
92.5043
92.6709
94.78
94.5372
92.8185
93.0981
95.1859
94.9979
51.6005
14.6425
115.258
6.62382
68.1562
14.8708
121.706
6.23869
68.3175
150.267
137.282
94.6878
94.5107
159.548
155.785
102.668
110.027
141.155
140.615
127.696
131.644
147.05
144.69
133.717
135.83
86.19
85.5818
83.9865
84.0199
87.3657
86.6373
85.2165
85.0969
42.8779
-0.967639
19.697
28.3177
-28.897
-17.8099
30.4958
46.0563
-19.2444
-6.15259
39.5661
35.9145
20.5944
22.7841
42.6677
37.9349
23.3748
24.6316
21.1983
6.49274
3.06746
-33.2832
-2.0514
-4.75517
-10.855
-0.0168444
1.57677
20.4445
-0.777949
-9.24775
-0.0979433
6.582
-6.31326
7.36654
-19.4338
1.23663
-5.36347
3.29539
-18.6075
-7.64345
-22.8436
-21.8862
-1.1981
-35.9404
-14.3296
-54.5734
-68.9068
-79.3934
-96.1436
-77.7841
-90.7433
-99.8231
-116.74
0.676607
-49.1268
-15.1271
-81.2956
-96.7173
-106.872
-125.874
-78.4239
-96.7548
-102.002
-124.497
-30.5393
-55.8957
-99.1753
-109.323
-40.4558
-62.751
-116.617
-123.404
-59.0402
-30.3333
-93.7798
-62.4242
-71.9694
-50.8859
-106.757
-80.7411
-59.1541
-38.6217
-26.1658
-108.227
-27.1438
-102.746
-28.4351
-136.977
-31.8008
-128.738
-152.997
-148.399
-160.508
-153.702
-173.511
-166.706
-176.937
-170.267
-121.144
-85.3884
-122.65
-86.9501
-138.129
-101.848
-139.245
-104.116
-81.2152
-81.9788
-80.8093
-81.6959
-84.3033
-84.4916
-83.901
-84.214
-44.0544
-12.978
-77.6793
-2.89482
-21.816
-19.5409
-82.9516
-4.01209
-28.1731
-125.41
-126.153
-73.8831
-78.7389
-131.346
-135.671
-70.1736
-81.4161
-99.5354
-66.2354
-59.089
-33.9335
-110.059
-83.1002
-67.8792
-50.1928
-52.2402
-52.0008
-46.442
-47.6044
-54.861
-54.106
-49.0265
-49.7062
-24.7292
-0.536456
-33.8227
-23.8085
9.88868
39.0761
-31.2136
-25.4373
4.54538
31.9612
20.0072
27.0836
40.5396
37.2466
15.3327
22.9406
34.7421
33.5484
17.5266
18.7532
25.3806
24.7203
16.009
17.4594
23.7474
23.3613
12.8774
1.84895
81.8497
13.6139
101.454
112.315
109.536
125.321
105.752
117.025
114.336
130.431
5.13395
66.8129
15.7132
98.9441
120.211
109.64
135.788
86.2801
113.992
97.5279
129.359
85.6723
108.415
153.734
157.575
75.4484
95.6476
141.513
143.325
113.513
94.1419
144.222
128.126
96.6192
82.2292
126.531
114.648
82.2743
83.0227
86.3078
85.8908
80.6378
81.9597
84.5877
84.7905
42.8024
16.3558
117.656
4.13902
58.9214
21.2389
104.86
8.17974
53.0441
157.773
157.837
100.502
112.135
147.986
145.308
93.944
102.834
147.142
144.134
134.974
137.33
138.993
138.972
128.878
133.204
85.1904
84.5907
83.5836
83.4542
83.9636
83.868
82.4126
82.7574
39.6285
-1.57947
33.9698
50.5552
-8.18528
1.86227
32.0832
44.8272
-4.06295
3.05832
47.6898
43.7286
29.0815
30.7752
46.8575
43.4772
29.1002
30.902
21.4702
5.71151
-0.159379
-17.5106
3.88063
-3.91915
-11.2078
0.339535
0.523406
11.5839
-0.735748
-5.64454
0.655072
0.673203
-9.09031
-19.0593
-18.3495
-0.532272
-49.8807
-10.9034
-77.1492
3.19418
-6.45249
-1.12389
-51.965
-35.1308
-50.2442
-97.129
-104.728
-12.237
-24.3356
-56.8414
-66.9725
-63.2314
-63.278
-80.3395
-72.7241
-59.0169
-62.2286
-68.7365
-67.8047
-52.2617
-36.6066
-20.8462
-113.95
-125.691
-124.161
-144.105
-95.197
-114.778
-105.141
-132.274
-24.0315
-114.488
-7.45169
-65.1722
-6.37725
-68.0323
-145.344
-144.056
-146.309
-146.274
-89.52
-94.653
-88.5921
-96.7084
-123.158
-95.0202
-123.731
-100.422
-89.807
-73.723
-91.1669
-80.0252
-73.0241
-44.8512
-13.8539
-72.6385
-2.70661
-21.1482
-1.33619
-46.879
-1.52405
-4.81107
-103.148
-113.421
-48.5832
-65.2926
-56.6524
-73.0743
-18.2016
-40.3066
-82.8882
-74.7984
-64.0667
-64.522
-70.7607
-69.702
-59.2077
-63.1265
-52.3008
-30.5016
-0.252465
-17.893
-20.1281
5.17065
22.3654
-1.87041
-12.9914
1.75162
11.2167
-2.53004
-0.265861
13.4837
10.9718
-4.13123
-1.86786
10.9583
9.07857
-2.17777
-0.233013
4.9164
43.1663
14.2194
71.6739
3.29456
3.91843
5.62816
34.82
71.1423
72.2469
133.236
135.65
144.586
147.177
123.359
129.023
134.477
140.35
112.679
32.1888
44.2465
69.3506
73.6309
72.0543
72.8639
85.5587
82.1506
66.3434
70.4768
76.2698
77.1005
42.6754
24.0439
14.7301
76.0231
6.65358
29.0342
6.4523
29.5586
1.5553
3.79135
120.829
115.836
77.735
83.2507
74.0509
75.8476
46.6897
53.2297
94.9609
92.5177
91.8532
90.94
84.3856
85.7146
81.7117
84.2479
46.0275
22.6916
-0.809483
0.555801
18.1963
9.03567
-2.30668
0.442538
-15.1094
-2.41397
-8.41885
-14.6075
-0.307546
3.63267
8.87398
3.24872
2.47247
0.652962
-2.66248
10.2431
-2.35961
-3.57602
0.24276
1.79444
0.544384
-16.0861
-13.9974
0.279288
-34.6764
-38.7409
-32.5469
-43.5764
2.334
-1.49476
-1.48723
-9.72995
-23.7108
-19.9401
-25.0381
-21.5664
-9.43278
-11.1074
-10.8695
-12.1596
-27.0157
-20.7082
0.558008
-16.4564
-32.61
-1.75383
-18.9075
3.582
-6.48948
-0.0954599
-4.04689
-8.12942
-22.4173
-16.777
-0.188488
-2.6542
-1.6768
-7.39748
-5.17114
-0.887997
6.274
10.7422
7.53661
4.13125
0.442449
-2.31695
13.6828
8.51962
1.74198
1.46195
-21.4432
-0.438895
-5.62438
-11.63
1.58922
-13.405
-1.47784
-10.6179
-17.1048
-0.376823
2.64187
5.88188
1.29009
3.2459
-0.294866
1.53296
12.5816
2.5132
1.68973
0.0226022
2.62195
17.9603
-0.222837
-3.12536
0.334366
1.41471
16.1565
-4.3286
-7.56545
-0.180408
7.76579
14.5719
-6.66195
-8.12931
-0.0869425
-1.18952
-4.69674
-8.88018
-5.65652
-0.446064
-3.37734
-9.55734
-7.02251
-3.49626
-0.241432
-3.57601
-1.3179
-4.8587
-6.08595
0.860855
-6.2755
2.45729
-7.60139
-13.7899
1.37666
-8.58859
6.08486
-6.99682
-15.7504
SCALARS m0 double 1
LOOKUP_TABLE table1
0
0
0
0
0
0
0
0
0
0
0
0
0
0
0
0
0
0
0
0
0
0
0
0
0
0
0
0
0
0
0
0
0
0
0
0
0
0
0
0
0
0
0
0
0
0
0
0
0
0
0
0
0
0
0
0
0
0
0
0
0
0
0
0
0
0
0
0
0
0
0
0
0
0
0
0
0
0
0
0
0
0
0
0
0
0
0
0
0
0
0
0
0
0
0
0
0
0
0
0
0
0
0
0
0
0
0
0
0
0
0
0
0
0
0
0
0
0
0
0
0
0
0
0
0
0
0
0
0
0
0
0
0
0
0
0
0
0
0
0
0
0
0
0
0
0
0
0
0
0
0
0
0
0
0
0
0
0
0
0
0
0
0
0
0
0
0
0
0
0
0
0
0
0
0
0
0
0
0
0
0
0
0
0
0
0
0
0
0
0
0
0
0
0
0
0
0
0
0
0
0
0
0
0
0
0
0
0
0
0
0
0
0
0
0
0
0
0
0
0
0
0
0
0
0
0
0
0
0
0
0
0
0
0
0
0
0
0
0
0
0
0
0
0
0
0
0
0
0
0
0
0
0
0
0
0
0
0
0
0
0
0
0
0
0
0
0
0
0
0
0
0
0
0
0
0
0
0
0
0
0
0
0
0
0
0
0
0
0
0
0
0
0
0
0
0
0
0
0
0
0
0
0
0
0
0
0
0
0
0
0
0
0
0
0
0
0
0
0
0
0
0
0
0
0
0
0
0
0
0
0
0
0
0
0
0
0
0
0
0
0
0
0
0
0
0
0
0
0
0
0
0
0
0
0
0
0
0
0
0
0
0
0
0
0
0
0
0
0
0
0
0
0
0
0
0
0
0
0
0
0
0
0
0
0
0
0
0
0
0
0
0
0
0
0
0
0
0
0
0
0
0
0
0
0
0
0
0
0
0
0
0
0
0
0
0
0
0
0
0
0
0
0
0
0
0
0
0
0
0
0
0
0
0
0
0
0
0
0
0
0
0
0
0
0
0
0
0
0
0
0
0
0
0
0
0
0
0
0
0
0
0
0
0
0
0
0
0
0
0
0
0
0
0
0
0
0
0
0
0
0
0
0
0
0
0
0
0
0
0
0
0
0
0
0
0
0
0
0
0
0
0
0
0
0
0
0
0
0
0
0
0
0
0
0
0
0
0
0
0
0
0
0
0
0
0
0
0
0
0
0
0
0
0
0
0
0
0
0
0
0
0
0
0
0
0
0
0
0
0
0
0
0
0
0
0
0
0
0
0
0
0
0
0
0
0
0
0
0
0
0
0
0
0
0
0
0
0
0
0
0
0
0
0
0
0
0
0
0
0
0
0
0
0
0
0
0
0
0
0
0
0
0
0
0
0
0
0
0
0
0
0
0
0
0
0
0
0
0
0
0
0
0
0
0
0
0
0
0
0
0
0
0
0
0
0
0
0
0
0
0
0
0
0
0
0
0
0
0
0
0
0
0
0
0
0
0
0
0
0
0
0
0
0
0
0
0
0
0
0
0
0
0
0
0
0
0
0
0
0
0
0
0
0
0
0
0
0
0
0
0
0
0
0
0
0
0
0
0
0
0
0
0
0
0
0
0
0
0
0
0
0
0
0
0
0
0
0
0
0
0
0
0
0
0
0
0
0
0
0
0
0
0
0
0
0
0
0
0
0
0
0
0
0
0
0
0
0
0
0
0
0
0
0
0
0
0
0
0
0
0
0
0
0
0
0
0
0
0
0
0
0
0
0
0
0
0
0
0
0
0
0
0
0
0
0
0
0
0
0
0
0
0
0
0
0
0
0
0
0
0
0
0
0
0
0
0
0
0
0
0
0
0
0
0
0
0
0
0
0
0
0
0
0
0
0
0
0
0
0
0
0
0
0
0
0
0
0
0
0
0
0
0
0
0
0
0
0
0
0
0
0
0
0
0
0
0
0
0
0
0
0
0
0
0
0
0
0
0
0
0
0
0
0
0
0
0
0
0
0
0
0
0
0
0
0
0
0
0
0
0
0
0
0
0
0
0
0
0
0
0
0
0
0
0
0
0
0
0
0
0
0
0
0
0
0
0
0
0
0
0
0
0
0
0
0
0
0
0
0
0
0
0
0
0
0
0
0
0
0
0
0
0
0
0
0
0
0
0
0
0
0
0
0
0
0
0
0
0
0
0
0
0
0
0
0
0
0
0
0
0
0
0
0
0
0
0
0
0
0
0
0
0
0
0
0
0
0
0
0
0
0
0
0
0
0
0
0
0
0
0
0
0
0
0
0
0
0
0
0
0
0
0
0
0
0
0
0
0
0
0
0
0
0
0
0
0
0
0
0
0
0
0
0
0
0
0
0
0
0
0
0
0
0
0
0
0
0
0
0
0
0
0
0
0
0
0
0
0
0
0
0
0
0
0
0
0
0
0
0
0
0
0
0
0
0
0
0
0
0
0
0
0
0
0
0
0
0
0
0
0
0
0
0
0
0
0
0
0
0
0
0
0
0
0
0
0
0
0
0
0
0
0
0
0
0
0
0
0
0
0
0
0
0
0
0
0
0
0
0
0
0
0
0
0
0
0
0
0
0
0
0
0
0
0
0
0
0
0
0
0
0
0
0
0
0
0
0
0
0
0
0
0
0
0
0
0
0
0
0
0
0
0
0
0
0
0
0
0
0
0
0
0
0
0
0
0
0
0
0
0
0
0
0
0
0
0
0
0
0
0
0
0
0
0
0
0
0
0
0
0
0
0
0
0
0
0
0
0
0
0
0
0
0
0
0
0
0
0
0
0
0
0
0
0
0
0
0
0
0
0
0
0
0
0
0
0
0
0
0
0
0
0
0
0
0
0
0
0
0
0
0
0
0
0
0
0
0
0
0
0
0
0
0
0
0
0
0
0
0
0
0
0
0
0
0
0
0
0
0
0
0
0
0
0
0
0
0
0
0
0
0
0
0
0
0
0
0
0
0
0
0
0
0
0
0
0
0
0
0
0
0
0
0
0
0
0
0
0
0
0
0
0
0
0
0
0
0
0
0
0
0
0
0
0
0
0
0
0
0
0
0
0
0
0
0
0
0
0
0
0
0
0
0
0
0
0
0
0
0
0
0
0
0
0
0
0
0
0
0
0
0
0
0
0
0
0
0
0
0
0
0
0
0
0
0
0
0
0
0
0
0
0
0
0
0
0
0
0
0
0
0
0
0
0
0
0
0
0
0
0
0
0
0
0
0
0
0
0
0
0
0
0
0
0
0
0
0
0
0
0
0
0
0
0
0
0
0
0
0
0
0
SCALARS m0s double 1
LOOKUP_TABLE table2
0
0
0
0
0
0
0
0
0
0
0
0
0
0
0
0
0
0
0
0
0
0
0
0
0
0
0
0
0
0
0
0
0
0
0
0
0
0
0
0
0
0
0
0
0
0
0
0
0
0
0
0
0
0
0
0
0
0
0
0
0
0
0
0
0
0
0
0
0
0
0
0
0
0
0
0
0
0
0
0
0
0
0
0
0
0
0
0
0
0
0
0
0
0
0
0
0
0
0
0
0
0
0
0
0
0
0
0
0
0
0
0
0
0
0
0
0
0
0
0
0
0
0
0
0
0
0
0
0
0
0
0
0
0
0
0
0
0
0
0
0
0
0
0
0
0
0
0
0
0
0
0
0
0
0
0
0
0
0
0
0
0
0
0
0
0
0
0
0
0
0
0
0
0
0
0
0
0
0
0
0
0
0
0
0
0
0
0
0
0
0
0
0
0
0
0
0
0
0
0
0
0
0
0
0
0
0
0
0
0
0
0
0
0
0
0
0
0
0
0
0
0
0
0
0
0
0
0
0
0
0
0
0
0
0
0
0
0
0
0
0
0
0
0
0
0
0
0
0
0
0
0
0
0
0
0
0
0
0
0
0
0
0
0
0
0
0
0
0
0
0
0
0
0
0
0
0
0
0
0
0
0
0
0
0
0
0
0
0
0
0
0
0
0
0
0
0
0
0
0
0
0
0
0
0
0
0
0
0
0
0
0
0
0
0
0
0
0
0
0
0
0
0
0
0
0
0
0
0
0
0
0
0
0
0
0
0
0
0
0
0
0
0
0
0
0
0
0
0
0
0
0
0
0
0
0
0
0
0
0
0
0
0
0
0
0
0
0
0
0
0
0
0
0
0
0
0
0
0
0
0
0
0
0
0
0
0
0
0
0
0
0
0
0
0
0
0
0
0
0
0
0
0
0
0
0
0
0
0
0
0
0
0
0
0
0
0
0
0
0
0
0
0
0
0
0
0
0
0
0
0
0
0
0
0
0
0
0
0
0
0
0
0
0
0
0
0
0
0
0
0
0
0
0
0
0
0
0
0
0
0
0
0
0
0
0
0
0
0
0
0
0
0
0
0
0
0
0
0
0
0
0
0
0
0
0
0
0
0
0
0
0
0
0
0
0
0
0
0
0
0
0
0
0
0
0
0
0
0
0
0
0
0
0
0
0
0
0
0
0
0
0
0
0
0
0
0
0
0
0
0
0
0
0
0
0
0
0
0
0
0
0
0
0
0
0
0
0
0
0
0
0
0
0
0
0
0
0
0
0
0
0
0
0
0
0
0
0
0
0
0
0
0
0
0
0
0
0
0
0
0
0
0
0
0
0
0
0
0
0
0
0
0
0
0
0
0
0
0
0
0
0
0
0
0
0
0
0
0
0
0
0
0
0
0
0
0
0
0
0
0
0
0
0
0
0
0
0
0
0
0
0
0
0
0
0
0
0
0
0
0
0
0
0
0
0
0
0
0
0
0
0
0
0
0
0
0
0
0
0
0
0
0
0
0
0
0
0
0
0
0
0
0
0
0
0
0
0
0
0
0
0
0
0
0
0
0
0
0
0
0
0
0
0
0
0
0
0
0
0
0
0
0
0
0
0
0
0
0
0
0
0
0
0
0
0
0
0
0
0
0
0
0
0
0
0
0
0
0
0
0
0
0
0
0
0
0
0
0
0
0
0
0
0
0
0
0
0
0
0
0
0
0
0
0
0
0
0
0
0
0
0
0
0
0
0
0
0
0
0
0
0
0
0
0
0
0
0
0
0
0
0
0
0
0
0
0
0
0
0
0
0
0
0
0
0
0
0
0
0
0
0
0
0
0
0
0
0
0
0
0
0
0
0
0
0
0
0
0
0
0
0
0
0
0
0
0
0
0
0
0
0
0
0
0
0
0
0
0
0
0
0
0
0
0
0
0
0
0
0
0
0
0
0
0
0
0
0
0
0
0
0
0
0
0
0
0
0
0
0
0
0
0
0
0
0
0
0
0
0
0
0
0
0
0
0
0
0
0
0
0
0
0
0
0
0
0
0
0
0
0
0
0
0
0
0
0
0
0
0
0
0
0
0
0
0
0
0
0
0
0
0
0
0
0
0
0
0
0
0
0
0
0
0
0
0
0
0
0
0
0
0
0
0
0
0
0
0
0
0
0
0
0
0
0
0
0
0
0
0
0
0
0
0
0
0
0
0
0
0
0
0
0
0
0
0
0
0
0
0
0
0
0
0
0
0
0
0
0
0
0
0
0
0
0
0
0
0
0
0
0
0
0
0
0
0
0
0
0
0
0
0
0
0
0
0
0
0
0
0
0
0
0
0
0
0
0
0
0
0
0
0
0
0
0
0
0
0
0
0
0
0
0
0
0
0
0
0
0
0
0
0
0
0
0
0
0
0
0
0
0
0
0
0
0
0
0
0
0
0
0
0
0
0
0
0
0
0
0
0
0
0
0
0
0
0
0
0
0
0
0
0
0
0
0
0
0
0
0
0
0
0
0
0
0
0
0
0
0
0
0
0
0
0
0
0
0
0
0
0
0
0
0
0
0
0
0
0
0
0
0
0
0
0
0
0
0
0
0
0
0
0
0
0
0
0
0
0
0
0
0
0
0
0
0
0
0
0
0
0
0
0
0
0
0
0
0
0
0
0
0
0
0
0
0
0
0
0
0
0
0
0
0
0
0
0
0
0
0
0
0
0
0
0
0
0
0
0
0
0
0
0
0
0
0
0
0
0
0
0
0
0
0
0
0
0
0
0
0
0
0
0
0
0
0
0
0
0
0
0
0
0
0
0
0
0
0
0
0
0
0
0
0
0
0
0
0
0
0
0
0
0
0
0
0
0
0
0
0
0
0
0
0
0
0
0
0
0
0
0
0
0
0
0
0
0
0
0
0
0
0
0
0
0
0
0
0
0
0
0
0
0
0
0
0
0
0
0
0
0
0
0
0
0
0
0
0
0
0
0
0
0
0
0
0
0
0
0
0
0
0
0
0
0
0
0
0
0
0
0
0
0
0
0
0
0
0
0
0
0
0
0
0
0
0
0
0
0
0
0
0
0
0
0
0
0
0
0
0
0
0
0
0
0
0
0
0
0
0
0
0
0
0
0
0
0
0
0
0
0
0
0
0
0
0
0
0
0
0
0
0
0
0
0
0
0
0
0
0
0
0
0
0
0
0
0
0
0
0
0
0
0
0
0
0
0
0
0
0
0
0
0
0
0
0
0
0
0
0
0
0
0
0
0
0
0
0
0
0
0
0
0
0
0
0
0
0
0
0
0
0
0

POINT_DATA	1452
SCALARS model double 1
LOOKUP_TABLE table0
-0.875725
15.8167
-4.74473
-17.5849
-20.0889
-0.574248
6.69384
-7.47935
-14.1773
-15.2539
-0.472193
2.13926
-17.2596
-14.1672
-10.8459
-0.873494
3.94389
-18.6325
-14.3552
-8.44837
-0.0255525
-1.03829
-20.1764
-13.5776
-8.33404
-0.484631
3.38948
-9.50017
-11.3503
-9.39301
0.0642776
-5.84582
-2.68969
-9.36431
-10.3306
0.294545
-10.3914
2.45635
-7.05541
-10.5013
0.0614813
-1.25405
5.83079
-5.7604
-10.4154
0.218998
-5.38275
-1.78147
-8.74226
-11.454
-0.669625
4.11974
-20.1861
-21.8194
-18.8817
0.401703
-9.52884
-17.0785
-11.7338
-9.60472
-0.681786
-7.23355
-0.823398
0.905661
1.46799
-2.40006
-5.67616
4.09231
5.0141
4.44584
5.36078
13.8105
12.6771
13.8533
12.9411
8.03664
7.74112
0.0771805
-21.556
-4.83625
4.00838
6.16552
0.498522
-14.3985
-10.6266
-2.43912
0.511298
0.234605
-6.32737
-4.01346
-5.49306
-4.67495
-1.29558
3.84769
1.12513
-6.4759
-8.48459
-0.841445
1.89577
4.12201
-6.85482
-11.3133
0.271691
-2.25386
3.84456
-7.19346
-12.2698
-1.55949
20.3225
-20.8644
-17.999
-12.7704
-0.504805
-9.48078
0.233463
1.84293
1.8504
-2.12392
-4.29689
-1.17106
13.0753
4.02585
16.829
3.56579
85.0213
28.8539
38.9886
41.945
46.7797
48.2469
49.1737
49.9711
57.6224
56.3116
33.8023
21.0365
-10.2851
23.4475
-7.38843
21.9188
-7.02143
77.4282
-4.00125
73.0056
43.5914
15.089
38.3324
17.5857
88.426
93.9988
99.9478
103.94
107.919
112.249
119.074
121.978
66.5157
100.551
104.41
93.1596
99.3741
119.355
122.103
111.785
116.903
68.8522
72.1428
78.1852
71.6696
77.9157
86.3063
84.1564
85.8995
84.5756
48.8413
32.3283
-1.51929
-2.21148
-5.13475
-17.7672
-11.563
73.9762
25.1044
9.34274
0.302854
42.4408
43.8803
37.0165
39.8498
53.5054
51.7552
47.3855
47.6235
38.4048
29.2379
-0.136471
-19.8743
7.63492
19.26
18.6436
-2.07613
-18.4751
4.4919
8.13609
8.42578
-1.09631
-13.5199
1.12741
0.4102
-1.30597
0.157765
-9.50853
0.238205
-6.80534
-10.9704
0.976872
-15.9434
1.89111