# vtk DataFile Version 3.0
Gravity inversion using rectangular prisms
ASCII
DATASET UNSTRUCTURED_GRID

POINTS	3713	double
0	0	0
0	0	200
0	0	400
0	0	600
0	0	800
0	0	1000
0	200	0
0	200	200
0	200	400
0	200	600
0	200	800
0	200	1000
0	400	0
0	400	200
0	400	400
0	400	600
0	400	800
0	400	1000
0	600	0
0	600	200
0	600	400
0	600	600
0	600	800
0	600	1000
0	800	0
0	800	200
0	800	400
0	800	600
0	800	800
0	800	1000
0	1000	0
0	1000	200
0	1000	400
0	1000	600
0	1000	800
0	1000	1000
0	1200	0
0	1200	200
0	1200	400
0	1200	600
0	1200	800
0	1200	1000
0	1400	0
0	1400	200
0	1400	400
0	1400	600
0	1400	800
0	1400	1000
0	1600	0
0	1600	200
0	1600	400
0	1600	600
0	1600	800
0	1600	1000
0	1800	0
0	1800	200
0	1800	400
0	1800	600
0	1800	800
0	1800	1000
0	2000	0
0	2000	200
0	2000	400
0	2000	600
0	2000	800
0	2000	1000
200	0	0
200	0	200
200	0	400
200	0	600
200	0	800
200	0	1000
200	200	0
200	200	200
200	200	400
200	200	600
200	200	800
200	200	1000
200	400	0
200	400	200
200	400	400
200	400	600
200	400	800
200	400	1000
200	600	0
200	600	200
200	600	300
200	600	400
200	600	600
200	600	800
200	600	1000
200	700	200
200	700	300
200	700	400
200	800	0
200	800	200
200	800	300
200	800	400
200	800	600
200	800	800
200	800	1000
200	900	200
200	900	300
200	900	400
200	1000	0
200	1000	200
200	1000	300
200	1000	400
200	1000	600
200	1000	800
200	1000	1000
200	1200	0
200	1200	200
200	1200	400
200	1200	600
200	1200	800
200	1200	1000
200	1400	0
200	1400	200
200	1400	400
200	1400	600
200	1400	800
200	1400	1000
200	1600	0
200	1600	200
200	1600	400
200	1600	600
200	1600	800
200	1600	1000
200	1800	0
200	1800	200
200	1800	400
200	1800	600
200	1800	800
200	1800	1000
200	2000	0
200	2000	200
200	2000	400
200	2000	600
200	2000	800
200	2000	1000
300	600	200
300	600	300
300	600	400
300	700	200
300	700	300
300	700	400
300	800	200
300	800	300
300	800	400
300	900	200
300	900	300
300	900	400
300	1000	200
300	1000	300
300	1000	400
400	0	0
400	0	200
400	0	400
400	0	600
400	0	800
400	0	1000
400	200	0
400	200	200
400	200	400
400	200	600
400	200	800
400	200	1000
400	400	0
400	400	100
400	400	200
400	400	300
400	400	400
400	400	600
400	400	800
400	400	1000
400	500	0
400	500	100
400	500	200
400	500	300
400	500	400
400	600	0
400	600	100
400	600	200
400	600	300
400	600	400
400	600	600
400	600	800
400	600	1000
400	700	0
400	700	100
400	700	200
400	700	250
400	700	300
400	700	400
400	750	200
400	750	250
400	750	300
400	800	0
400	800	100
400	800	200
400	800	250
400	800	300
400	800	400
400	800	600
400	800	800
400	800	1000
400	850	200
400	850	250
400	850	300
400	900	0
400	900	100
400	900	200
400	900	250
400	900	300
400	900	400
400	1000	0
400	1000	100
400	1000	200
400	1000	300
400	1000	400
400	1000	600
400	1000	800
400	1000	1000
400	1100	200
400	1100	300
400	1100	400
400	1200	0
400	1200	200
400	1200	300
400	1200	400
400	1200	600
400	1200	800
400	1200	1000
400	1400	0
400	1400	200
400	1400	400
400	1400	600
400	1400	800
400	1400	1000
400	1600	0
400	1600	200
400	1600	400
400	1600	600
400	1600	800
400	1600	1000
400	1800	0
400	1800	200
400	1800	400
400	1800	600
400	1800	800
400	1800	1000
400	2000	0
400	2000	200
400	2000	400
400	2000	600
400	2000	800
400	2000	1000
450	700	200
450	700	250
450	700	300
450	750	200
450	750	250
450	750	300
450	800	200
450	800	250
450	800	300
450	850	200
450	850	250
450	850	300
450	900	200
450	900	250
450	900	300
500	400	0
500	400	100
500	400	200
500	400	300
500	400	400
500	500	0
500	500	100
500	500	200
500	500	300
500	500	400
500	600	0
500	600	100
500	600	150
500	600	200
500	600	250
500	600	300
500	600	400
500	650	100
500	650	150
500	650	200
500	650	250
500	650	300
500	700	0
500	700	100
500	700	150
500	700	200
500	700	250
500	700	300
500	700	400
500	750	100
500	750	150
500	750	200
500	750	250
500	750	300
500	800	0
500	800	100
500	800	150
500	800	200
500	800	250
500	800	300
500	800	400
500	850	200
500	850	250
500	850	300
500	900	0
500	900	100
500	900	200
500	900	250
500	900	300
500	900	400
500	950	200
500	950	250
500	950	300
500	1000	0
500	1000	100
500	1000	200
500	1000	250
500	1000	300
500	1000	400
500	1100	200
500	1100	300
500	1100	400
500	1200	200
500	1200	300
500	1200	400
550	600	100
550	600	150
550	600	200
550	600	250
550	600	300
550	650	100
550	650	150
550	650	200
550	650	250
550	650	300
550	700	100
550	700	150
550	700	200
550	700	250
550	700	300
550	750	100
550	750	150
550	750	200
550	750	250
550	750	300
550	800	100
550	800	150
550	800	200
550	800	250
550	800	300
550	850	200
550	850	250
550	850	300
550	900	200
550	900	250
550	900	300
550	950	200
550	950	250
550	950	300
550	1000	200
550	1000	250
550	1000	300
600	0	0
600	0	200
600	0	400
600	0	600
600	0	800
600	0	1000
600	200	0
600	200	200
600	200	400
600	200	600
600	200	800
600	200	1000
600	400	0
600	400	100
600	400	200
600	400	300
600	400	400
600	400	600
600	400	800
600	400	1000
600	500	0
600	500	100
600	500	200
600	500	250
600	500	300
600	500	400
600	550	200
600	550	250
600	550	300
600	600	0
600	600	50
600	600	100
600	600	150
600	600	200
600	600	250
600	600	300
600	600	350
600	600	400
600	600	500
600	600	600
600	600	800
600	600	1000
600	650	0
600	650	50
600	650	100
600	650	150
600	650	200
600	650	250
600	650	300
600	650	350
600	650	400
600	700	0
600	700	50
600	700	100
600	700	150
600	700	200
600	700	250
600	700	300
600	700	350
600	700	400
600	700	500
600	700	600
600	750	0
600	750	50
600	750	100
600	750	150
600	750	200
600	750	250
600	750	300
600	750	350
600	750	400
600	800	0
600	800	50
600	800	100
600	800	150
600	800	200
600	800	250
600	800	300
600	800	350
600	800	400
600	800	500
600	800	600
600	800	800
600	800	1000
600	850	100
600	850	150
600	850	200
600	850	250
600	850	300
600	900	0
600	900	100
600	900	150
600	900	200
600	900	250
600	900	300
600	900	350
600	900	400
600	900	500
600	900	600
600	950	100
600	950	150
600	950	200
600	950	250
600	950	300
600	950	350
600	950	400
600	1000	0
600	1000	100
600	1000	150
600	1000	200
600	1000	250
600	1000	300
600	1000	350
600	1000	400
600	1000	500
600	1000	600
600	1000	800
600	1000	1000
600	1050	200
600	1050	250
600	1050	300
600	1100	0
600	1100	100
600	1100	200
600	1100	250
600	1100	300
600	1100	400
600	1200	0
600	1200	100
600	1200	200
600	1200	300
600	1200	400
600	1200	600
600	1200	800
600	1200	1000
600	1300	0
600	1300	100
600	1300	200
600	1300	300
600	1300	400
600	1400	0
600	1400	100
600	1400	200
600	1400	300
600	1400	400
600	1400	500
600	1400	600
600	1400	800
600	1400	1000
600	1500	0
600	1500	100
600	1500	200
600	1500	300
600	1500	400
600	1500	500
600	1500	600
600	1600	0
600	1600	100
600	1600	200
600	1600	300
600	1600	400
600	1600	500
600	1600	600
600	1600	800
600	1600	1000
600	1700	200
600	1700	300
600	1700	400
600	1800	0
600	1800	200
600	1800	300
600	1800	400
600	1800	600
600	1800	800
600	1800	1000
600	2000	0
600	2000	200
600	2000	400
600	2000	600
600	2000	800
600	2000	1000
650	500	200
650	500	250
650	500	300
650	550	200
650	550	250
650	550	300
650	600	0
650	600	50
650	600	100
650	600	150
650	600	200
650	600	250
650	600	300
650	600	350
650	600	400
650	650	0
650	650	50
650	650	100
650	650	150
650	650	200
650	650	250
650	650	300
650	650	350
650	650	400
650	700	0
650	700	50
650	700	100
650	700	150
650	700	200
650	700	250
650	700	300
650	700	350
650	700	400
650	750	0
650	750	50
650	750	100
650	750	150
650	750	200
650	750	250
650	750	300
650	750	350
650	750	400
650	800	0
650	800	50
650	800	100
650	800	150
650	800	200
650	800	250
650	800	300
650	800	350
650	800	400
650	850	100
650	850	150
650	850	200
650	850	250
650	850	300
650	900	100
650	900	150
650	900	200
650	900	250
650	900	300
650	900	350
650	900	400
650	950	100
650	950	150
650	950	200
650	950	250
650	950	300
650	950	350
650	950	400
650	1000	100
650	1000	150
650	1000	200
650	1000	250
650	1000	300
650	1000	350
650	1000	400
650	1050	200
650	1050	250
650	1050	300
650	1100	200
650	1100	250
650	1100	300
700	400	0
700	400	100
700	400	200
700	400	300
700	400	400
700	500	0
700	500	100
700	500	200
700	500	250
700	500	300
700	500	400
700	550	200
700	550	250
700	550	300
700	600	0
700	600	50
700	600	100
700	600	150
700	600	200
700	600	250
700	600	300
700	600	350
700	600	400
700	600	500
700	600	600
700	650	0
700	650	50
700	650	100
700	650	150
700	650	200
700	650	250
700	650	300
700	650	350
700	650	400
700	700	0
700	700	50
700	700	100
700	700	150
700	700	200
700	700	250
700	700	300
700	700	350
700	700	400
700	700	500
700	700	600
700	750	0
700	750	50
700	750	100
700	750	150
700	750	200
700	750	250
700	750	300
700	750	350
700	750	400
700	800	0
700	800	50
700	800	100
700	800	150
700	800	200
700	800	250
700	800	300
700	800	350
700	800	400
700	800	500
700	800	600
700	850	100
700	850	150
700	850	200
700	850	250
700	850	300
700	900	0
700	900	100
700	900	150
700	900	200
700	900	250
700	900	300
700	900	350
700	900	400
700	900	500
700	900	600
700	950	100
700	950	150
700	950	200
700	950	250
700	950	300
700	950	350
700	950	400
700	1000	0
700	1000	100
700	1000	150
700	1000	200
700	1000	250
700	1000	300
700	1000	350
700	1000	400
700	1000	500
700	1000	600
700	1050	200
700	1050	250
700	1050	300
700	1100	0
700	1100	100
700	1100	200
700	1100	250
700	1100	300
700	1100	400
700	1200	0
700	1200	100
700	1200	200
700	1200	300
700	1200	400
700	1300	0
700	1300	100
700	1300	200
700	1300	300
700	1300	400
700	1400	0
700	1400	100
700	1400	200
700	1400	250
700	1400	300
700	1400	350
700	1400	400
700	1400	500
700	1400	600
700	1450	200
700	1450	250
700	1450	300
700	1450	350
700	1450	400
700	1500	0
700	1500	100
700	1500	200
700	1500	250
700	1500	300
700	1500	350
700	1500	400
700	1500	500
700	1500	600
700	1550	200
700	1550	250
700	1550	300
700	1550	350
700	1550	400
700	1600	0
700	1600	100
700	1600	200
700	1600	250
700	1600	300
700	1600	350
700	1600	400
700	1600	500
700	1600	600
700	1700	200
700	1700	300
700	1700	400
700	1800	200
700	1800	300
700	1800	400
750	500	200
750	500	250
750	500	300
750	550	200
750	550	250
750	550	300
750	600	0
750	600	50
750	600	100
750	600	150
750	600	200
750	600	250
750	600	300
750	600	350
750	600	400
750	650	0
750	650	50
750	650	100
750	650	150
750	650	200
750	650	250
750	650	300
750	650	350
750	650	400
750	700	0
750	700	50
750	700	100
[...]
CELL_DATA	2502
SCALARS model double 1
LOOKUP_TABLE table0
0.170401
-0.0548786
-2.73818
-2.0347
-2.02502
0.175513
-0.573275
-1.2142
-1.05868
-1.34329
-0.300817
0.275027
-0.961917
-1.26026
-2.04855
-0.251697
-0.418424
-0.890112
-1.45148
-1.67658
-0.214417
-0.750533
-0.702712
-1.09063
-1.4384
-0.574003
-0.314939
-0.42045
-0.829549
-1.54226
-0.25274
-0.700531
-0.742326
-0.858095
-0.747516
-0.118443
-0.916907
-1.3455
-1.32914
-1.50358
-0.34736
2.44785
-0.489124
-1.05815
-1.29736
-0.0717092
-1.12188
-0.467079
-1.02697
-1.28499
-0.15175
-0.0287087
-0.171355
-1.94786
-2.32484
-0.0715425
0.276843
0.9858
-2.23708
-1.54492
-0.421676
-0.512342
-0.64364
-2.14736
-2.71517
-1.78195
-0.506429
-0.704115
-0.421145
-0.619779
-0.518409
-0.677983
-0.444059
-0.596803
-0.881302
-1.749
-2.19705
-0.083973
-0.360639
-0.525343
-0.257298
-0.429209
-0.37555
-0.507318
-0.267263
-0.419521
-0.56107
-1.44021
-1.92702
-0.511692
0.0342116
-0.271359
-0.436825
-0.184386
-1.04267
-0.0607236
-0.614706
-0.864289
-1.26537
-0.644169
-0.252406
-0.586409
-1.07327
-1.37828
-0.287611
-0.992483
-0.85893
-0.968659
-1.1604
-0.168117
-0.746715
-0.960877
-0.997563
-1.21387
-0.6346
3.34515
1.91733
2.68674
3.4695
-0.22467
-7.92942
5.33849
2.67494
3.47737
-0.50999
-1.50132
-0.53708
-1.51345
-0.450851
-1.21194
-0.243171
-1.10867
19.0195
26.6866
19.0084
26.6854
19.0306
26.7233
19.0465
26.7292
31.6325
4.90853
7.98437
-0.562995
-1.61713
-0.36431
-1.20825
-0.274258
-0.954397
-1.31885
-1.03616
-1.46163
-0.933464
-1.2728
-1.00411
-1.39257
-0.393844
-1.07571
-1.47115
-0.994723
-1.37532
-1.06183
-1.50139
-0.992086
-1.39877
100.969
95.9929
99.0488
101.014
99.0445
100.941
99.0503
101.029
99.0506
101.007
95.9956
99.0617
101.177
99.0185
101.109
99.026
101.145
99.0755
101.155
96.0212
99.0299
100.956
99.0636
100.966
99.1021
101.039
99.0661
100.964
96.0151
41.923
9.96769
12.8647
0.381584
1.07409
2.44318
5.443
0.294179
0.849025
1.9443
5.00675
-59.7143
-73.1237
-59.7181
-73.1175
-59.7827
-73.0283
-59.8028
-73.0267
29.2275
-66.4001
29.2292
-59.7398
-73.0516
-59.7699
-73.0539
-59.7885
-73.0247
-59.8109
-73.001
29.2245
-59.8001
-73.0513
-59.7891
-73.0073
-59.8155
-73.0058
-59.8101
-73.0125
29.2247
42.0269
8.92276
11.3626
1.18473
-28.482
0.325331
-28.4783
0.339624
-28.4449
0.397341
-28.4525
0.399526
0.210347
5.61175
7.53993
-1.91739
0.00802716
-0.479297
-0.602454
-0.678092
-0.631001
-0.0636796
-0.41163
-0.759939
-0.99182
-0.49637
-0.469507
-0.574721
-0.69149
-0.858127
-0.547866
0.32081
-0.595154
-0.750832
-0.896132
-0.383033
-1.61299
1.66293
2.6994
3.5844
-1.67743
16.2496
8.29407
2.61646
3.51246
2.55923
37.3867
3.95239
37.5259
2.58844
37.4191
3.98204
37.5348
104.49
73.7993
104.584
102.111
104.584
102.116
104.578
102.107
104.576
102.101
73.8212
104.471
73.7819
104.571
102.096
104.572
102.092
104.571
102.089
104.575
102.097
73.8052
24.9242
3.59326
4.45853
-10.2813
-11.3737
-10.3132
-11.391
-10.2892
-11.3629
-10.2897
-11.3804
199.189
200.105
199.17
200.086
199.192
200.111
199.167
200.083
-10.3221
-11.4279
-10.3457
-11.4373
-10.341
-11.4084
-10.3378
-11.4186
199.125
200.043
199.113
200.028
199.128
200.045
199.112
200.025
-10.2782
-11.3505
-10.302
-11.3733
-10.2887
-11.3494
-10.2812
-11.3655
199.194
200.112
199.171
200.087
199.194
200.109
199.176
200.092
-10.3208
-11.3941
-10.3435
-11.3966
-10.3356
-11.3786
-10.3271
-11.3814
199.136
200.052
199.12
200.031
199.139
200.054
199.131
200.042
337.872
340.601
337.875
340.605
337.863
340.661
337.863
340.639
233.156
232.471
233.155
232.47
233.161
232.474
233.157
232.471
337.857
340.509
337.854
340.498
337.852
340.492
337.853
340.477
233.153
232.47
233.149
232.465
233.154
232.47
233.155
232.471
337.852
340.721
337.842
340.66
337.843
340.749
337.834
340.677
233.165
232.475
233.162
232.474
233.166
232.476
233.165
232.475
308.899
233.159
232.472
233.159
232.474
233.163
232.476
233.161
232.474
38.1666
46.4496
38.1476
46.4855
38.4304
46.946
38.3134
46.8379
8.69262
11.22
0.874445
2.23685
3.11667
2.18717
3.03686
2.17336
3.09057
2.14623
3.02432
0.79864
2.07173
2.9194
2.07638
2.90798
2.12352
3.00082
2.1148
2.99457
0.997736
2.33325
3.25021
2.2718
3.22363
2.38291
3.33177
2.36103
3.33002
0.979988
2.23772
3.18597
2.20353
3.10461
2.34763
3.28534
2.34099
3.26998
227.812
227.832
227.832
227.852
227.821
227.838
227.831
227.855
167.115
227.853
227.887
227.85
227.872
227.862
227.891
227.858
227.877
168.366
163.837
168.354
163.883
168.297
163.906
168.26
163.9
286.829
286.236
286.831
286.237
286.831
286.236
286.832
286.238
166.962
227.872
227.895
227.884
227.896
227.888
227.899
227.892
227.906
168.17
163.91
168.112
163.879
168.097
163.76
168.052
163.748
38.1734
46.7247
38.2577
46.9026
38.2107
46.9042
38.2625
46.9281
8.69727
11.1472
6.78822
-87.8648
6.76495
-27.4835
6.77861
-87.8466
6.80228
-27.458
-25.8061
-31.526
-25.8091
-31.5257
-25.7952
-31.5419
-25.7985
-31.5411
0.755375
-28.6667
0.750141
-25.7943
-31.5322
-25.7896
-31.5282
-25.7771
-31.538
-25.7772
-31.5387
0.827168
-28.6655
0.814283
42.9394
6.0907
8.28833
-2.52612
-13.1723
-2.48485
-13.148
-2.5124
-13.1755
-2.50484
-13.1712
11.0564
15.5071
11.0616
15.5016
11.06
15.5031
11.0613
15.5045
22.6028
-0.0320756
-0.150033
-2.4624
-17.1555
1.3504
-17.1838
-2.50899
-17.2258
-2.52066
-17.2717
-28.5846
-40.0348
-28.6101
-40.0241
-25.7751
-31.4701
-25.7747
-31.4717
-25.7865
-31.5039
-25.8166
-31.5106
-37.2104
-42.9475
-37.2081
-42.927
-37.2347
-42.944
-37.2202
-42.9025
-25.7821
-31.4694
-25.8001
-31.4774
-25.8215
-31.5032
-25.8224
-31.5211
-37.2011
-42.9227
-37.1666
-42.86
-37.2028
-42.9241
-37.2009
-42.9044
-0.414785
-0.425034
-0.432077
-0.448785
-0.47372
-0.50531
-0.488216
-0.522717
0.0296401
-0.00209134
-1.03537
-0.445527
-0.606744
-0.473961
-0.671424
-0.504182
-0.659966
-0.509133
-0.712834
-0.668322
-0.459168
-0.597293
-0.7689
-0.706008
-0.630211
-0.446185
-0.596224
-0.431743
0.784011
1.10929
0.728632
1.16929
-1.02293
10.9176
4.25182
0.723827
1.14155
4.99187
15.0614
5.14181
15.2566
1.09396
4.03285
-3.78735
4.29212
61.2185
43.112
62.1857
58.7517
62.2119
58.7747
62.1961
58.765
62.2126
58.7862
43.174
61.2828
43.1223
62.205
58.7887
62.2176
58.8041
62.2065
58.7979
62.2296
58.8154
43.1781
12.9649
3.66791
5.36415
-7.23399
78.8086
79.5516
78.7923
79.5419
78.7984
79.535
78.7737
79.5179
-7.63683
78.7653
79.5208
78.7549
79.5077
78.7487
79.4971
78.7299
79.483
-10.9805
78.7643
79.5052
78.7425
79.4857
78.7521
79.4865
78.7252
79.4677
-11.159
78.706
79.459
78.689
79.4427
78.6889
79.4356
78.6657
79.423
397.447
396.597
397.44
396.594
397.443
396.593
397.433
396.588
213.123
209.065
213.127
209.036
213.125
209.048
213.125
209.031
397.424
396.586
397.416
396.578
397.418
396.581
397.408
396.575
213.122
209.057
213.12
209.025
213.114
209.074
213.114
209.049
397.437
396.587
397.423
396.581
397.431
396.584
397.422
396.578
213.133
209.045
213.128
209.04
213.137
209.027
213.128
209.039
397.408
396.572
397.397
396.567
397.402
396.569
397.392
396.561
213.116
209.023
213.11
209.02
213.11
209.037
213.096
209.036
11.1741
13.6092
10.545
11.7706
10.5386
11.7651
10.541
11.7686
10.5354
11.7632
13.5855
11.1724
13.6062
11.1426
13.5777
5.51239
7.09372
1.11763
-56.8172
-53.0688
-56.7971
-53.0577
-56.8152
-53.0975
-56.8145
-53.07
1.17415
-45.0667
-5.73498
-56.8426
-53.1426
-56.8367
-53.0992
-56.8653
-53.1484
-56.845
-53.1166
-3.7603
-45.0836
146.87
129.621
146.866
129.627
146.848
129.526
146.852
129.514
164.965
111.158
119.648
111.157
119.65
111.166
119.557
111.165
119.56
152.503
146.818
129.511
146.822
129.517
146.8
129.442
146.797
129.44
153.125
176.545
153.129
176.548
153.078
176.573
153.071
176.568
111.156
119.445
111.157
119.447
111.16
119.477
111.16
119.481
141.522
163.214
141.524
163.217
141.481
163.195
141.484
163.201
37.7835
46.1034
38.1132
46.5553
37.7664
45.9218
38.0424
46.3196
5.64089
7.29075
6.81785
-87.7327
6.83526
-87.7148
6.18297
-85.6149
-84.7978
-85.6152
-84.7971
-85.6003
-84.7756
-85.5913
-84.7661
7.69642
-85.6087
-84.7886
-85.6063
-84.7855
-85.5923
-84.7665
-85.6027
-84.7761
76.2602
66.6001
68.4779
84.0619
68.4649
84.0419
68.4605
84.0302
68.4453
84.01
66.6085
76.0432
66.5851
76.0658
66.59
43.0336
4.48088
6.7665
2.09351
-93.9478
-93.889
-93.9487
-93.8912
-93.9587
-93.9016
-93.9574
-93.9014
2.00129
-14.5046
-20.2727
-14.5097
-20.2682
-14.4998
-20.2606
-14.5245
-20.2761
17.8629
-93.9741
-93.9165
-93.9737
-93.9172
-93.9852
-93.9253
-93.9858
-93.9281
22.6657
-14.5034
-20.2764
-14.5471
-20.3014
-14.5305
-20.3224
-14.5707
-20.3415
175.043
176.027
175.038
176.024
175.045
176.029
175.04
176.025
138.111
175.034
176.02
175.029
176.017
175.033
176.019
175.03
176.018
138.102
189.392
208.452
189.392
208.39
189.391
208.485
189.391
208.46
138.114
189.39
208.364
189.39
208.395
189.39
208.44
189.391
208.442
138.106
87.4215
81.1787
87.4176
81.2218
87.417
81.239
87.414
81.2858
3.2076
4.90195
1.84837
-14.4901
-20.2938
-14.551
-20.3346
-14.5277
-20.3617
-14.591
-20.4037
-5.88564
-14.5885
-20.3822
-14.6055
-20.427
-14.6239
-20.4831
-14.6375
-20.507
22.6754
-14.5702
-20.4093
-14.6111
-20.443
-14.6063
-20.4331
-14.6301
-20.4579
-5.8747
-14.6202
-20.5256
-14.6479
-20.5506
-14.6341
-20.5137
-14.6615
-20.5402
252.285
252.97
252.22
252.918
252.298
252.97
252.252
252.941
247.125
247.946
247.098
247.895
247.137
247.973
247.099
247.927
252.114
252.839
252.067
252.802
252.14
252.852
252.086
252.817
247.015
247.795
246.995
247.772
247.037
247.843
247.008
247.782
252.322
252.984
252.289
252.961
252.358
252.994
252.322
252.979
247.093
247.992
247.071
247.94
247.074
247.986
247.072
247.982
252.188
252.886
252.149
252.86
252.272
252.939
252.231
252.917
247.093
247.92
247.069
247.873
247.122
247.952
247.116
247.915
66.5438
81.2512
66.6049
81.3523
66.6072
81.3273
62.9367
70.3588
62.9597
70.3667
62.9937
70.4004
63.0105
70.4033
81.4161
0.417802
0.512595
-5.89048
-17.6575
-0.375094
-1.00735
-0.47489
-1.34991
-0.435881
-1.22931
-54.7625
-37.0645
-54.7731
-37.1029
-54.7733
-37.0736
-54.7598
-37.0946
-43.7847
-50.5126
-43.8105
-50.5605
-43.7897
-50.5244
-43.8265
-50.5552
-33.7782
-47.2763
-54.753
-37.0732
-54.7674
-37.0899
-54.7656
-37.0804
-54.7596
-37.1072
-43.799
-50.5344
-43.8213
-50.5447
-43.8153
-50.5388
-43.824
-50.5783
-33.8285
-47.3256
-0.581932
-0.645615
-0.58903
-0.664025
-0.578134
-0.632354
-0.58877
-0.653244
0.28847
0.483092
0.368452
-0.806707
-0.65732
0.350261
0.535525
-0.00205356
0.673534
0.698857
0.351438
0.5134
-0.0247353
-1.11096
-1.13961
-1.23688
-1.4815
-0.590759
-1.90451
-0.17966
-3.23441
-2.332
-2.77431
-1.48538
-3.67171
-20.9902
-29.7934
-20.8273
-29.3794
-20.9603
-29.6956
-20.8444
-29.2971
-10.8122
-6.82713
-7.9428
0.346063
-56.0354
-8.04683
-13.5978
9.33186
-72.8157
-73.7744
-72.8057
-73.7711
-72.8176
-73.7764
-72.8113
-73.7733
2.10903
-15.7478
-21.9195
-15.7868
-21.9266
-15.7411
-21.9384
-15.766
-21.9283
-86.2794
-105.476
-86.3013
-105.504
-86.2705
-105.472
-86.2945
-105.489
-71.3307
-82.2786
-71.3406
-82.2842
-71.3299
-82.2769
-71.3377
-82.283
-86.3742
-105.555
-86.3984
-105.576
-86.3505
-105.538
-86.3754
-105.568
-71.3556
-82.3018
-71.3645
-82.3188
-71.3507
-82.2978
-71.3584
-82.3116
-86.2551
-91.6949
-86.2633
-91.7027
-86.2426
-91.6964
-86.2422
-91.7039
-76.8055
-86.2894
-91.7135
-86.3158
-91.7268
-86.2612
-91.7149
-86.2818
-91.7275
-76.8114
-33.1767
-40.5021
-33.4959
-40.996
-33.2021
-40.5035
-33.4921
-40.9386
-17.0257
-20.8257
-5.53748
-14.8415
-5.99603
-14.7955
-6.80867
-14.6955
-6.68181
-14.7214
-23.5092
-28.8787
-32.7304
-28.8346
-32.777
-28.8449
-32.7822
-28.8145
-32.824
-23.6156
-28.7748
-32.7706
-28.7572
-32.7612
-28.7642
-32.8226
-28.75
-32.8231
-23.5888
-30.8951
-23.5897
-30.9155
-35.3266
-41.776
-35.8717
-42.0673
-35.1025
-41.7662
-35.6892
-42.0587
-16.4179
-21.1465
-6.6532
-14.9684
-6.59214
-14.9782
-7.12102
-15.0025
-6.58003
-14.9902
74.9573
85.4411
74.9781
85.4369
74.8409
85.4617
74.8719
85.4463
-7.74205
-9.05511
-7.71703
-9.01681
-7.93202
-9.47148
-7.92137
-9.45171
-2.8622
-0.859711
0.632656
47.8334
62.0603
47.8362
62.0372
47.8358
62.0359
47.8359
62.0119
22.7152
52.4239
0.652078
52.9922
20.8888
52.4248
189.902
190.406
189.909
190.415
190.022
190.397
190.049
190.406
66.6516
81.3802
66.6515
81.4287
66.7558
81.4924
66.7383
81.5533
3.21244
3.96112
22.6772
50.4783
51.5606
50.4666
51.5437
50.4788
51.5585
50.468
51.5443
2.7267
-64.1893
-65.4351
-64.1888
-65.4357
-64.1942
-65.4399
-64.1924
-65.4392
22.7
50.4782
51.5562
50.4697
51.5451
50.4789
51.5574
50.4695
51.544
2.41662
-64.1991
-65.4459
-64.1965
-65.4447
-64.2058
-65.4539
-64.2026
-65.4523
252.373
252.998
252.365
253.001
252.389
252.996
252.392
253.013
265.999
252.327
252.978
252.315
252.976
252.394
253.019
252.389
253.028
263.015
266.464
262.992
266.427
263.017
266.401
262.994
266.383
252.4
253.004
252.409
253.012
252.397
252.997
252.428
253.025
268.633
252.421
253.034
252.437
253.06
252.45
253.053
252.458
253.071
268.005
266.296
267.975
266.243
267.985
266.355
267.96
266.25
137.334
81.4436
137.322
81.5398
137.331
81.5005
129.922
144.688
129.897
144.705
129.899
144.706
129.875
144.714
81.6347
1.26421
1.56168
-0.465922
-1.40362
-0.462793
-1.33961
-0.440667
-1.49099
-0.4513
-1.30927
15.9387
19.5072
15.9349
19.501
15.9518
19.5377
15.9372
19.5214
22.9175
26.4075
22.9182
26.4121
22.927
26.4256
22.9322
26.4402
17.6953
24.64
15.9755
19.5545
15.9622
19.5415
15.9885
19.5461
15.9816
19.5388
22.9411
26.4415
22.9463
26.4588
22.948
26.4376
22.9483
26.4478
17.6975
24.6617
31.603
38.7403
31.5002
38.6061
31.5853
38.6646
31.4995
38.6016
3.05008
4.01359
1.44553
-38.6586
-53.9778
-38.6637
-53.9915
-38.654
-53.9754
-38.6475
-53.9849
34.9788
2.99274
3.91219
-0.117439
0.60948
0.480981
0.177338
0.0409789
-0.496968
-8.67491
-5.09153
-4.08976
-3.27072
-1.58868
-33.6951
-1.61619
-34.8186
-29.8573
-34.7875
-29.8382
-34.8148
-29.864
-34.7975
-29.8407
-9.52973
-33.7038
-10.5854
-34.8285
-29.8787
-34.8208
-29.8653
-34.8521
-29.8951
-34.8334
-29.8919
-78.6741
-59.0369
-78.4596
-77.1857
-78.4532
-77.1832
-78.4554
-77.1882
-78.453
-77.1857
-59.0547
-78.6764
-59.0415
-78.4549
-77.1944
-78.4591
-77.1938
-78.4653
-77.2006
-78.4601
-77.202
-59.0626
-26.2677
-12.7613
-15.5075
8.51319
25.4607
8.51024
25.4572
8.51127
25.4407
8.50844
25.4279
-253.835
-276.435
-253.847
-276.44
-253.854
-276.451
-253.867
-276.453
8.50733
25.443
8.50359
25.4366
8.50665
25.4258
8.50286
25.4117
-253.874
-276.453
-253.887
-276.454
-253.886
-276.456
-253.907
-276.466
8.50278
25.4039
8.50194
25.4042
8.49262
25.3926
8.49359
25.3871
-253.879
-276.465
-253.891
-276.465
-253.903
-276.478
-253.905
-276.471
8.50215
25.4004
8.5009
25.4
8.4963
25.3952
8.49662
25.3936
-253.904
-276.461
-253.921
-276.468
-253.919
-276.471
-253.93
-276.472
-281.028
-302.849
-281.026
-302.851
-281.028
-302.852
-281.029
-302.851
-247.702
-251.442
-247.698
-251.513
-247.693
-251.512
-247.712
-251.52
-281.032
-302.853
-281.036
-302.858
-281.032
-302.855
-281.038
-302.861
-247.745
-251.646
-247.754
-251.699
-247.752
-251.618
-247.766
-251.639
-320.1
-318.057
-320.097
-318.054
-320.101
-318.055
-320.096
-318.054
-247.719
-251.615
-247.73
-251.586
-247.723
-251.672
-247.742
-251.607
-320.099
-318.053
-320.102
-318.057
-320.1
-318.055
-320.102
-318.055
-247.704
-251.675
-247.737
-251.654
-247.728
-251.65
-247.74
-251.607
-59.521
-71.8183
-59.4388
-72.3789
-59.3069
-71.811
-59.2979
-72.1498
-31.8137
-18.7514
-5.67893
-14.2614
-19.9853
-14.2389
-19.9858
-14.2568
-20.0089
-14.2574
-19.9831
-6.66542
-16.7428
-17.6692
-35.7653
-31.771
-35.7745
-31.767
-35.7734
-31.7714
-35.7731
-31.7676
-6.0002
-12.9214
-98.8959
-103.603
-98.8925
-103.549
-98.9066
-103.597
-98.9121
-103.528
-79.3657
-93.8146
-79.3607
-98.9394
-103.568
-98.9337
-103.483
-98.9531
-103.544
-98.9573
-103.465
-79.3886
-93.7163
-79.4032
-66.3667
-21.9998
-20.5307
-0.871212
-3.91194
-5.92581
-3.45726
-5.45522
-3.51777
-4.86908
-3.16194
-5.0387
-10.9692
-7.46433
-9.75808
11.7835
49.9457
19.456
49.9369
11.849
49.9888
19.3817
49.9657
173.845
182.937
173.837
182.913
173.846
182.959
173.849
182.927
135.427
166.258
135.422
173.855
182.996
173.859
182.954
173.872
183.011
173.859
182.969
135.398
166.267
135.393
30.1503
36.925
30.1289
36.8834
30.2087
37.049
30.1587
36.8929
0.0484998
0.010942
-0.474844
-1.43092
-0.504568
-1.51845
-0.536444
-1.61147
-0.529861
-1.5792
250.873
251.067
250.869
251.065
250.865
251.058
250.857
251.053
-0.929139
33.2957
34.7956
33.3003
34.7981
33.2625
34.7638
33.266
34.7656
-0.582703
-1.64538
-0.570864
-1.6821
-0.567777
-1.69808
-0.576129
-1.7487
250.859
251.051
250.849
251.043
250.851
251.042
250.841
251.036
-1.21148
33.2328
34.7336
33.2364
34.7355
33.2033
34.7042
33.2072
34.7072
271.625
272.928
271.62
272.925
271.628
272.932
271.62
272.926
267.937
266.618
267.938
266.579
267.921
266.578
267.927
266.561
271.613
272.919
271.611
272.917
271.615
272.923
271.611
272.92
267.966
266.485
267.956
266.428
267.948
266.529
267.957
266.5
271.632
272.937
271.625
272.932
271.637
272.941
271.629
272.937
267.897
266.564
267.94
266.579
267.888
266.523
267.939
266.587
271.618
272.928
271.614
272.924
271.621
272.93
271.616
272.927
267.948
266.54
267.966
266.549
267.94
266.537
267.948
266.534
28.5024
31.7757
28.5289
31.8213
28.5664
31.8019
28.5719
31.8315
36.8415
28.5493
31.8983
28.6893
32.0546
28.5493
31.8793
28.6655
32.0144
37.1067
28.605
31.8407
28.6091
31.8654
28.631
31.9327
28.6418
31.9575
36.8764
28.5692
31.8847
28.6689
32.0012
28.6234
31.9622
28.7272
32.0664
37.1261
0.734142
0.972155
-0.643905
-1.7501
-1.51461
-4.35896
-0.565112
-1.7234
2.92182
8.63609
-29.7763
-36.4168
-29.7746
-36.4166
-29.7743
-36.3954
-29.7694
-36.3835
-43.1306
-49.8499
-43.163
-49.8611
-43.1768
-49.8683
-43.1808
-49.8475
-33.1162
-46.4372
-29.7363
-36.3598
-29.7566
-36.3702
-29.7103
-36.3832
-29.7183
-36.3655
-43.1687
-49.8724
-43.164
-49.8188
-43.0987
-49.8131
-43.0681
-49.7442
-33.1074
-46.4332
31.1174
38.1781
31.8156
38.8564
31.1423
38.1389
31.912
38.9511
3.26072
4.42458
1.33292
3.7861
35.6101
3.23885
4.24423
-0.659817
4.21496
2.0403
1.29922
1.4934
-1.3773
-0.0715341
-4.86004
-4.25241
-4.2561
-9.38965
-12.0391
-9.55814
-12.0678
-3.05989
-11.9608
-7.53224
-11.9898
-40.1486
-46.8297
-40.151
-46.8577
-40.1294
-46.8233
-40.1073
-46.8344
-28.6769
-13.5063
-12.9332
-9.53458
-122.3
-122.984
-122.298
-122.991
-122.291
-122.987
-122.294
-122.984
-2.75073
-122.299
-122.997
-122.304
-122.998
-122.296
-122.991
-122.297
-123.003
4.76921
-87.8762
-87.6181
-87.8804
-87.6275
-87.8709
-87.6181
-87.8814
-87.624
4.7731
-87.8924
-87.6389
-87.9048
-87.6468
-87.8964
-87.6388
-87.9064
-87.6532
-222.908
-218.769
-222.916
-218.784
-222.909
-218.787
-222.918
-218.757
-160.206
-222.937
-218.798
-222.951
-218.825
-222.932
-218.772
-222.944
-218.831
-160.2
-222.921
-218.778
-222.924
-218.834
-222.915
-218.789
-222.924
-218.808
-159.375
-159.452
-159.378
-159.451
-159.395
-159.474
-159.394
-159.474
-222.929
-218.853
-222.942
-218.828
-222.931
-218.829
-222.936
-218.836
-159.367
-159.44
-159.369
-159.433
-159.391
-159.462
-159.379
-159.451
-58.0762
-71.5615
-57.7966
-70.9542
-57.7905
-71.6956
-57.54
-70.8404
-26.6687
-19.9147
-17.1059
-1.57172
-6.43312
-1.49057
-4.60407
-1.65975
-3.7714
-1.50408
-42.1014
-58.9257
-41.9826
-59.0102
-42.2195
-59.2517
-42.2307
-59.3399
-60.6316
-21.2917
-26.835
0.0264579
-2.57907
-3.39679
-3.00288
-4.31501
-2.54839
-4.00152
-2.82686
-4.04731
-6.44674
-7.70552
-10.2081
8.68002
33.1257
10.6216
33.5306
1.99107
32.6495
8.03139
32.786
137.603
135.346
134.348
135.343
134.326
138.696
134.329
138.71
134.372
138.771
134.375
138.757
135.266
134.274
135.284
30.5113
37.3089
30.5913
37.3064
30.7136
37.547
30.6832
37.3018
1.84482
3.29559
19.0452
-8.1944
9.24871
-8.24422
19.0098
-8.15462
3.70885
-8.17953
134.321
131.129
132.375
133.675
132.376
133.674
132.385
133.683
132.361
133.654
129.823
131.153
129.821
131.149
129.828
131.155
129.828
131.155
134.297
131.129
132.358
133.641
132.327
133.604
132.335
133.615
132.325
133.602
129.825
131.152
129.824
131.151
129.827
131.153
129.825
131.15
30.582
37.3321
30.588
37.3897
30.6098
37.2766
30.6296
37.4023
7.73997
9.88489
5.54184
-32.2806
-45.2332
-31.1815
-43.6126
-31.265
-43.8779
-31.1641
-43.6065
35.8961
2.32656
3.31713
3.84469
-35.9438
35.8792
1.97938
2.9155
0.100475
-5.48712
6.70316
3.92857
4.85492
-0.259479
4.73593
6.25756
0.598665