# vtk DataFile Version 3.0
Gravity inversion using rectangular prisms
ASCII
DATASET UNSTRUCTURED_GRID

POINTS	7641	double
0	0	0
0	0	500
0	0	1000
0	0	1500
0	0	2000
0	0	2500
0	0	3000
0	0	3500
0	500	0
0	500	500
0	500	1000
0	500	1500
0	500	2000
0	500	2500
0	500	3000
0	500	3500
0	1000	0
0	1000	500
0	1000	1000
0	1000	1500
0	1000	2000
0	1000	2500
0	1000	3000
0	1000	3500
0	1500	0
0	1500	500
0	1500	1000
0	1500	1500
0	1500	2000
0	1500	2500
0	1500	3000
0	1500	3500
0	2000	0
0	2000	500
0	2000	1000
0	2000	1500
0	2000	2000
0	2000	2500
0	2000	3000
0	2000	3500
0	2500	0
0	2500	500
0	2500	1000
0	2500	1500
0	2500	2000
0	2500	2500
0	2500	3000
0	2500	3500
0	3000	0
0	3000	500
0	3000	1000
0	3000	1500
0	3000	2000
0	3000	2500
0	3000	3000
0	3000	3500
0	3500	0
0	3500	500
0	3500	1000
0	3500	1500
0	3500	2000
0	3500	2500
0	3500	3000
0	3500	3500
0	4000	0
0	4000	500
0	4000	1000
0	4000	1500
0	4000	2000
0	4000	2500
0	4000	3000
0	4000	3500
0	4500	0
0	4500	500
0	4500	1000
0	4500	1500
0	4500	2000
0	4500	2500
0	4500	3000
0	4500	3500
0	5000	0
0	5000	500
0	5000	1000
0	5000	1500
0	5000	2000
0	5000	2500
0	5000	3000
0	5000	3500
0	5500	0
0	5500	500
0	5500	1000
0	5500	1500
0	5500	2000
0	5500	2500
0	5500	3000
0	5500	3500
0	6000	0
0	6000	500
0	6000	1000
0	6000	1500
0	6000	2000
0	6000	2500
0	6000	3000
0	6000	3500
500	0	0
500	0	500
500	0	1000
500	0	1500
500	0	2000
500	0	2500
500	0	3000
500	0	3500
500	500	0
500	500	500
500	500	1000
500	500	1500
500	500	2000
500	500	2500
500	500	3000
500	500	3500
500	1000	0
500	1000	500
500	1000	1000
500	1000	1500
500	1000	2000
500	1000	2500
500	1000	2750
500	1000	3000
500	1000	3250
500	1000	3500
500	1250	2500
500	1250	2750
500	1250	3000
500	1250	3250
500	1250	3500
500	1500	0
500	1500	500
500	1500	1000
500	1500	1500
500	1500	1750
500	1500	2000
500	1500	2250
500	1500	2500
500	1500	2750
500	1500	3000
500	1500	3250
500	1500	3500
500	1750	1500
500	1750	1750
500	1750	2000
500	1750	2250
500	1750	2500
500	1750	2750
500	1750	3000
500	1750	3250
500	1750	3500
500	2000	0
500	2000	500
500	2000	1000
500	2000	1250
500	2000	1500
500	2000	1750
500	2000	2000
500	2000	2250
500	2000	2500
500	2000	2750
500	2000	3000
500	2000	3250
500	2000	3500
500	2250	1000
500	2250	1250
500	2250	1500
500	2250	1750
500	2250	2000
500	2250	2250
500	2250	2500
500	2250	2750
500	2250	3000
500	2250	3250
500	2250	3500
500	2500	0
500	2500	500
500	2500	1000
500	2500	1250
500	2500	1500
500	2500	1750
500	2500	2000
500	2500	2250
500	2500	2500
500	2500	2750
500	2500	3000
500	2500	3250
500	2500	3500
500	2750	1000
500	2750	1250
500	2750	1500
500	2750	1750
500	2750	2000
500	2750	2250
500	2750	2500
500	2750	2750
500	2750	3000
500	2750	3250
500	2750	3500
500	3000	0
500	3000	500
500	3000	1000
500	3000	1250
500	3000	1500
500	3000	1750
500	3000	2000
500	3000	2250
500	3000	2500
500	3000	2750
500	3000	3000
500	3000	3250
500	3000	3500
500	3250	1000
500	3250	1250
500	3250	1500
500	3250	1750
500	3250	2000
500	3250	2250
500	3250	2500
500	3250	2750
500	3250	3000
500	3250	3250
500	3250	3500
500	3500	0
500	3500	500
500	3500	1000
500	3500	1250
500	3500	1500
500	3500	1750
500	3500	2000
500	3500	2250
500	3500	2500
500	3500	2750
500	3500	3000
500	3500	3250
500	3500	3500
500	3750	1500
500	3750	1750
500	3750	2000
500	3750	2250
500	3750	2500
500	3750	2750
500	3750	3000
500	3750	3250
500	3750	3500
500	4000	0
500	4000	500
500	4000	1000
500	4000	1500
500	4000	1750
500	4000	2000
500	4000	2250
500	4000	2500
500	4000	2750
500	4000	3000
500	4000	3250
500	4000	3500
500	4250	2000
500	4250	2250
500	4250	2500
500	4250	2750
500	4250	3000
500	4250	3250
500	4250	3500
500	4500	0
500	4500	500
500	4500	1000
500	4500	1500
500	4500	2000
500	4500	2250
500	4500	2500
500	4500	2750
500	4500	3000
500	4500	3250
500	4500	3500
500	4750	2500
500	4750	2750
500	4750	3000
500	4750	3250
500	4750	3500
500	5000	0
500	5000	500
500	5000	1000
500	5000	1500
500	5000	2000
500	5000	2500
500	5000	2750
500	5000	3000
500	5000	3250
500	5000	3500
500	5500	0
500	5500	500
500	5500	1000
500	5500	1500
500	5500	2000
500	5500	2500
500	5500	3000
500	5500	3500
500	6000	0
500	6000	500
500	6000	1000
500	6000	1500
500	6000	2000
500	6000	2500
500	6000	3000
500	6000	3500
750	1000	2500
750	1000	2750
750	1000	3000
750	1000	3250
750	1000	3500
750	1250	2500
750	1250	2750
750	1250	3000
750	1250	3250
750	1250	3500
750	1500	1500
750	1500	1750
750	1500	2000
750	1500	2250
750	1500	2500
750	1500	2750
750	1500	3000
750	1500	3250
750	1500	3500
750	1750	1500
750	1750	1750
750	1750	2000
750	1750	2250
750	1750	2500
750	1750	2750
750	1750	3000
750	1750	3250
750	1750	3500
750	2000	1000
750	2000	1250
750	2000	1500
750	2000	1750
750	2000	2000
750	2000	2250
750	2000	2500
750	2000	2750
750	2000	3000
750	2000	3250
750	2000	3500
750	2250	1000
750	2250	1250
750	2250	1500
750	2250	1750
750	2250	2000
750	2250	2250
750	2250	2500
750	2250	2750
750	2250	3000
750	2250	3250
750	2250	3500
750	2500	1000
750	2500	1250
750	2500	1500
750	2500	1750
750	2500	2000
750	2500	2250
750	2500	2500
750	2500	2750
750	2500	3000
750	2500	3250
750	2500	3500
750	2750	1000
750	2750	1250
750	2750	1500
750	2750	1750
750	2750	2000
750	2750	2250
750	2750	2500
750	2750	2750
750	2750	3000
750	2750	3250
750	2750	3500
750	3000	1000
750	3000	1250
750	3000	1500
750	3000	1750
750	3000	2000
750	3000	2250
750	3000	2500
750	3000	2750
750	3000	3000
750	3000	3250
750	3000	3500
750	3250	1000
750	3250	1250
750	3250	1500
750	3250	1750
750	3250	2000
750	3250	2250
750	3250	2500
750	3250	2750
750	3250	3000
750	3250	3250
750	3250	3500
750	3500	1000
750	3500	1250
750	3500	1500
750	3500	1750
750	3500	2000
750	3500	2250
750	3500	2500
750	3500	2750
750	3500	3000
750	3500	3250
750	3500	3500
750	3750	1500
750	3750	1750
750	3750	2000
750	3750	2250
750	3750	2500
750	3750	2750
750	3750	3000
750	3750	3250
750	3750	3500
750	4000	1500
750	4000	1750
750	4000	2000
750	4000	2250
750	4000	2500
750	4000	2750
750	4000	3000
750	4000	3250
750	4000	3500
750	4250	2000
750	4250	2250
750	4250	2500
750	4250	2750
750	4250	3000
750	4250	3250
750	4250	3500
750	4500	2000
750	4500	2250
750	4500	2500
750	4500	2750
750	4500	3000
750	4500	3250
750	4500	3500
750	4750	2500
750	4750	2750
750	4750	3000
750	4750	3250
750	4750	3500
750	5000	2500
750	5000	2750
750	5000	3000
750	5000	3250
750	5000	3500
1000	0	0
1000	0	500
1000	0	1000
1000	0	1500
1000	0	2000
1000	0	2500
1000	0	3000
1000	0	3500
1000	500	0
1000	500	500
1000	500	1000
1000	500	1500
1000	500	2000
1000	500	2500
1000	500	2750
1000	500	3000
1000	500	3250
1000	500	3500
1000	750	2500
1000	750	2750
1000	750	3000
1000	750	3250
1000	750	3500
1000	1000	0
1000	1000	500
1000	1000	1000
1000	1000	1500
1000	1000	1750
1000	1000	2000
1000	1000	2250
1000	1000	2500
1000	1000	2750
1000	1000	3000
1000	1000	3250
1000	1000	3500
1000	1250	1500
1000	1250	1750
1000	1250	2000
1000	1250	2250
1000	1250	2500
1000	1250	2750
1000	1250	3000
1000	1250	3250
1000	1250	3500
1000	1500	0
1000	1500	500
1000	1500	1000
1000	1500	1250
1000	1500	1500
1000	1500	1750
1000	1500	2000
1000	1500	2250
1000	1500	2500
1000	1500	2750
1000	1500	3000
1000	1500	3250
1000	1500	3500
1000	1750	1000
1000	1750	1250
1000	1750	1500
1000	1750	1750
1000	1750	2000
1000	1750	2250
1000	1750	2500
1000	1750	2750
1000	1750	3000
1000	1750	3250
1000	1750	3500
1000	2000	0
1000	2000	500
1000	2000	750
1000	2000	1000
1000	2000	1250
1000	2000	1500
1000	2000	1750
1000	2000	2000
1000	2000	2250
1000	2000	2500
1000	2000	2750
1000	2000	3000
1000	2000	3250
1000	2000	3500
1000	2250	500
1000	2250	750
1000	2250	1000
1000	2250	1250
1000	2250	1500
1000	2250	1750
1000	2250	2000
1000	2250	2250
1000	2250	2500
1000	2250	2750
1000	2250	3000
1000	2250	3250
1000	2250	3375
1000	2250	3500
1000	2375	3250
1000	2375	3375
1000	2375	3500
1000	2500	0
1000	2500	250
1000	2500	500
1000	2500	750
1000	2500	1000
1000	2500	1250
1000	2500	1500
1000	2500	1750
1000	2500	2000
1000	2500	2250
1000	2500	2500
1000	2500	2750
1000	2500	3000
1000	2500	3125
1000	2500	3250
1000	2500	3375
1000	2500	3500
1000	2625	3000
1000	2625	3125
1000	2625	3250
1000	2625	3375
1000	2625	3500
1000	2750	0
1000	2750	250
1000	2750	500
1000	2750	750
1000	2750	1000
1000	2750	1250
1000	2750	1500
1000	2750	1750
1000	2750	2000
1000	2750	2250
1000	2750	2500
1000	2750	2750
1000	2750	2875
1000	2750	3000
1000	2750	3125
1000	2750	3250
1000	2750	3375
1000	2750	3500
1000	2875	2750
1000	2875	2875
1000	2875	3000
1000	2875	3125
1000	2875	3250
1000	2875	3375
1000	2875	3500
1000	3000	0
1000	3000	250
1000	3000	500
1000	3000	750
1000	3000	1000
1000	3000	1250
1000	3000	1500
1000	3000	1750
1000	3000	2000
1000	3000	2250
1000	3000	2500
1000	3000	2750
1000	3000	2875
1000	3000	3000
1000	3000	3125
1000	3000	3250
1000	3000	3375
1000	3000	3500
1000	3125	2750
1000	3125	2875
1000	3125	3000
1000	3125	3125
1000	3125	3250
1000	3125	3375
1000	3125	3500
1000	3250	0
1000	3250	250
1000	3250	500
1000	3250	750
1000	3250	1000
1000	3250	1250
1000	3250	1500
1000	3250	1750
1000	3250	2000
1000	3250	2250
1000	3250	2500
1000	3250	2750
1000	3250	2875
1000	3250	3000
1000	3250	3125
1000	3250	3250
1000	3250	3375
1000	3250	3500
1000	3375	2750
1000	3375	2875
1000	3375	3000
1000	3375	3125
1000	3375	3250
1000	3375	3375
1000	3375	3500
1000	3500	0
1000	3500	250
1000	3500	500
1000	3500	750
1000	3500	1000
1000	3500	1250
1000	3500	1500
1000	3500	1750
1000	3500	2000
1000	3500	2250
1000	3500	2500
1000	3500	2750
1000	3500	2875
1000	3500	3000
1000	3500	3125
1000	3500	3250
1000	3500	3375
1000	3500	3500
1000	3625	2750
1000	3625	2875
1000	3625	3000
1000	3625	3125
1000	3625	3250
1000	3625	3375
1000	3625	3500
1000	3750	500
1000	3750	750
1000	3750	1000
1000	3750	1250
1000	3750	1500
1000	3750	1750
1000	3750	2000
1000	3750	2250
1000	3750	2500
1000	3750	2750
1000	3750	2875
1000	3750	3000
1000	3750	3125
1000	3750	3250
1000	3750	3375
1000	3750	3500
1000	3875	3250
1000	3875	3375
1000	3875	3500
1000	4000	0
1000	4000	500
1000	4000	750
1000	4000	1000
1000	4000	1250
1000	4000	1500
1000	4000	1750
1000	4000	2000
1000	4000	2250
1000	4000	2500
1000	4000	2750
1000	4000	3000
1000	4000	3125
1000	4000	3250
1000	4000	3375
1000	4000	3500
1000	4125	3000
1000	4125	3125
1000	4125	3250
1000	4125	3375
1000	4125	3500
1000	4250	1000
[...]
CELL_DATA	5796
SCALARS model double 1
LOOKUP_TABLE table0
-0.016627
0.631664
-0.0583071
-2.10587
-4.46277
-6.75871
-8.41988
0.0383933
0.339708
-0.451426
-2.23131
-4.21762
-6.11327
-7.53297
-0.105897
-0.300956
-1.1076
-2.47198
-3.85454
-5.07501
-6.08042
-0.0506511
-0.437336
-1.5615
-2.70783
-3.50653
-3.95296
-4.48482
0.0534507
-0.890657
-2.18909
-3.0969
-3.38013
-3.20528
-3.385
-0.235431
-1.57744
-2.84683
-3.58642
-3.57742
-3.0499
-3.06829
-0.37926
-1.51351
-2.87265
-3.86149
-4.02153
-3.52789
-3.59049
-0.369218
-0.888361
-2.55853
-4.05899
-4.70688
-4.59739
-4.88604
-0.214372
-0.700745
-2.59008
-4.49193
-5.58658
-6.06533
-6.73508
0.141363
-0.724453
-2.59701
-4.64994
-6.32922
-7.503
-8.65903
0.463043
-0.103456
-1.84171
-4.21303
-6.48063
-8.5273
-10.2095
0.143757
0.356443
-1.28163
-3.82745
-6.32203
-8.6378
-10.4633
0.304855
0.277424
-0.851988
-2.72439
-4.65271
-6.44583
-7.83639
-0.0811896
0.108017
-0.75481
-2.24831
-3.80512
-5.13279
-6.18255
0.0145778
0.00229456
-0.691776
-1.60957
-2.46182
-4.32356
-4.78709
-3.29024
-3.59945
-2.99713
-3.31442
-1.74306
-1.90446
-5.2234
-5.63472
-3.87096
-4.15774
-3.59607
-3.87281
-2.01791
-2.15723
-0.325076
-0.303432
-0.741451
-1.73893
-2.01822
-1.54171
-1.71456
-0.595944
-0.638
-0.241002
-0.157735
-2.34731
-2.48717
-1.82931
-1.79447
-0.707195
-0.649228
-0.00327803
0.24727
-2.54032
-2.60443
-1.69569
-1.56596
-0.5884
-0.503503
0.536466
0.835689
-2.69941
-2.86771
-1.48056
-1.52354
-0.422546
-0.415441
1.11525
1.27177
-0.105102
-0.642188
-1.30084
-1.43814
-1.45668
-1.5505
-0.351467
-0.191811
-0.367374
-0.16065
-1.5692
-1.6005
-1.60036
-1.52088
-0.0279402
0.229043
0.1218
0.504529
-1.54154
-1.33637
-1.3145
-0.955497
0.574059
1.01289
1.00205
1.59865
-1.06001
-0.753174
-0.51871
-0.0394082
1.49762
1.99856
2.25422
2.95667
-0.499779
-0.430439
0.390621
0.575399
2.49152
2.81028
3.70742
4.28899
-0.502996
-1.16889
-1.76422
-1.74533
-1.86663
-1.84978
-0.504658
-0.182072
-0.558459
-0.229363
-1.71531
-1.55912
-1.81466
-1.64227
0.174102
0.63603
0.136704
0.619028
-1.25693
-0.792641
-1.30609
-0.785338
1.2336
1.94577
1.25719
2.0377
-0.233742
0.389693
-0.143637
0.590284
2.74836
3.66113
2.9606
4.15368
0.953532
1.19986
1.2144
1.49115
4.69919
5.2888
5.15286
5.76201
-0.218067
-0.914966
-1.77316
-1.8787
-1.68023
-1.87898
-0.547836
-0.322294
-0.680515
-0.544683
-1.92343
-1.8052
-2.07583
-2.05548
-0.00560184
0.438835
-0.280018
0.088974
-1.50733
-0.993991
-1.85566
-1.41067
1.05361
1.8416
0.624064
1.35924
-0.338864
0.42936
-0.799264
-0.0609692
2.80434
4.07133
2.2916
3.53792
1.06953
1.34369
0.55103
0.789224
5.08457
5.69428
4.52901
5.10246
-0.349066
-0.794525
-1.45447
-2.29828
-2.37718
-2.54788
-2.73894
-0.661942
-0.424256
-1.19872
-1.0885
-2.31891
-1.99247
-2.91335
-2.75519
-0.0106529
0.615863
-0.819312
-0.351767
-1.48674
-0.843164
-2.4114
-1.94272
1.44542
2.58484
0.282072
1.04699
-0.309421
-0.136979
-1.52449
-1.4367
3.50198
4.00235
1.85885
2.39847
-0.365937
-0.8582
-1.87386
-2.79442
-3.57172
-3.53971
-4.13267
-4.2759
-1.7166
-1.43133
-2.62573
-2.53624
-3.38298
-3.0941
-4.43815
-4.38502
-0.995333
-0.420163
-2.35738
-2.05032
-2.81802
-2.85537
-4.33308
-4.51018
0.370906
0.658544
-1.64997
-1.42882
-0.089195
-0.421271
-1.92767
-3.44223
-4.5795
-5.40461
-5.53728
-6.22582
-6.52156
-3.6774
-3.62899
-4.85883
-5.01353
-5.69856
-6.03895
-6.87001
-7.34242
-3.56318
-3.71259
-5.18274
-5.51288
0.0468408
0.135066
-1.45453
-3.57229
-5.4829
-7.08709
-8.3951
0.203586
0.169686
-1.2625
-3.4352
-5.56977
-7.47505
-8.99981
0.202774
-0.624121
-2.03747
-3.47844
-4.67066
-5.59906
-6.51349
0.197328
-0.391477
-1.16808
-1.95402
-2.68311
-4.5774
-4.96866
-3.07048
-3.32816
-3.46866
-3.704
-1.71193
-1.81814
-5.35901
-5.76075
-3.58767
-3.85448
-3.91091
-4.17785
-1.89782
-2.01788
0.035213
-0.102689
0.0182875
-1.06816
-1.15417
-0.00341207
0.114632
0.136999
0.240774
1.5243
1.88043
-1.34258
-1.46043
0.154965
0.223362
0.300023
0.362168
2.19548
2.47522
-1.5189
-1.61617
0.230696
0.283486
0.371832
0.426194
2.70354
2.92296
-1.71468
-1.83471
0.34937
0.392935
0.494047
0.547551
3.14749
3.39319
0.0963264
0.22176
-0.101121
0.380005
0.480448
1.09457
1.38229
2.20889
2.2376
3.29528
0.776045
1.10517
1.56
2.05702
2.90323
3.56739
4.28012
5.19608
1.38496
1.67319
2.55185
3.05417
4.15493
4.66809
6.02236
6.74685
1.93985
2.20129
3.53927
4.00563
5.10348
5.49669
7.36979
7.93374
2.45252
2.66967
4.45874
4.85405
5.88843
6.33473
8.50021
9.14363
-0.196394
-0.365078
0.268919
0.0820429
0.777061
0.84791
1.97497
1.57032
2.83871
0.892598
1.5664
1.34393
2.04249
3.14315
4.39716
4.1975
5.54452
2.22035
2.87863
2.76895
3.52699
5.57566
6.66108
6.72862
7.86561
3.55498
4.24209
4.33023
5.1579
7.65797
8.54934
8.94832
9.94948
4.91515
5.57689
5.98637
6.82019
9.33377
10.0615
10.8628
11.7404
6.24455
6.85477
7.66337
6.71472
6.97533
7.4253
7.71701
8.82942
9.16883
9.4945
9.86235
10.8027
11.6385
12.6686
13.7216
-0.0706332
0.122837
0.171907
0.410558
0.609111
1.72338
0.713736
1.97563
0.572966
1.19374
0.776027
1.34856
2.63768
3.78423
2.98382
4.13387
1.70929
2.39501
1.82095
2.49516
5.3181
6.68519
5.68566
7.07164
3.13651
3.9382
3.2396
4.05292
7.61205
8.69362
7.94904
9.01239
4.81563
5.73988
4.96361
5.94577
9.79911
10.867
10.1311
11.2448
6.68874
7.66282
6.97456
6.63708
7.15495
6.72122
7.25019
8.6425
9.21262
8.71859
9.30009
11.8803
12.8903
12.3349
13.4647
7.08112
7.5111
7.47867
7.92801
9.12747
9.61945
9.5012
10.0114
7.95001
8.28685
8.3621
8.71564
10.1049
10.5154
10.5067
10.9347
7.70124
8.19102
7.8061
8.31304
9.77356
10.3125
9.87855
10.4331
8.63656
9.00116
8.76827
9.13897
10.8239
11.2652
10.9544
11.4018
13.99
15.1124
14.6144
15.7849
0.0963977
0.209201
-0.210725
-0.420171
0.576826
1.66303
0.312322
0.895136
0.503053
1.0966
-0.205036
0.44499
2.59614
3.73922
1.53047
2.60768
1.59989
2.29053
1.05881
1.80887
5.30281
6.76256
4.09849
5.80005
3.03674
3.83901
2.53241
3.29974
7.68616
8.76628
6.83714
7.95906
4.74771
5.75129
4.17069
5.1543
9.90388
11.0502
9.11725
10.2808
6.82818
6.66556
7.21347
6.49957
7.05317
8.65863
9.25842
8.49598
9.10096
6.23156
6.20262
6.76245
5.81018
6.36504
8.15809
8.76663
7.76422
8.36769
12.1874
13.3736
11.4362
12.6439
7.77826
8.29294
7.62217
8.13829
9.85111
10.4139
9.6991
10.2637
8.75109
9.12229
8.59487
8.96144
10.9401
11.3883
10.7891
11.2329
7.32989
7.84065
6.92509
7.42171
9.36654
9.92523
8.96228
9.50969
8.28873
8.64471
7.85172
8.19086
10.4428
10.875
10.0139
10.4307
14.5589
15.7375
13.8316
14.9729
-1.1434
-0.841933
-0.180555
-1.37923
-0.983137
0.0816399
1.17441
-0.844884
-0.124662
0.442174
1.23772
-0.509491
0.262823
2.85881
4.46924
1.14177
2.76369
1.79022
2.47177
0.800498
1.41615
5.51349
6.64995
3.81885
4.93762
3.26499
4.18083
2.09011
2.87628
7.80857
8.96111
6.05601
7.15162
5.20995
5.31077
5.86342
4.87995
5.38876
7.15613
7.75281
6.56493
7.11748
3.73268
4.56686
10.0955
11.2787
8.20127
9.23726
6.41064
6.87664
5.92147
6.32363
8.33704
8.85838
7.68889
8.16741
7.26823
7.58147
6.56195
6.83731
9.33849
9.73055
8.62659
8.99672
5.43672
5.62151
5.91959
4.70187
4.96745
7.58441
7.95361
6.68215
7.01841
12.4299
13.4937
10.3118
11.3235
-0.979957
-2.14409
-1.29731
-0.659309
-1.88863
-1.49993
-0.235772
0.895517
-1.2398
-0.488849
-0.218694
0.313683
-1.33048
-0.98001
1.94627
2.98652
0.241034
1.03962
0.7594
1.37079
-0.657085
-0.233743
3.99898
4.98444
1.84376
2.64009
2.07142
2.87319
0.237477
0.766234
5.92224
6.86213
3.39701
4.14595
3.16312
3.55467
2.33204
2.64584
4.77775
5.22477
3.87232
4.25245
3.7822
3.96789
2.7429
2.87724
5.5717
5.83038
4.52941
4.74437
1.28808
1.52412
1.67567
0.508681
0.624668
3.10504
3.31223
1.9939
2.16049
7.91797
8.70659
4.92993
5.58291
-0.592613
-1.84123
-2.1041
-2.19737
-2.02243
-2.81514
-2.84057
-1.15259
-0.672046
-2.12136
-1.92386
-1.93392
-1.73574
-2.99226
-3.05797
-0.164755
0.370937
-1.74931
-1.52272
-1.57271
-1.31312
-3.22646
-3.21322
0.88362
1.41072
-1.34965
-1.05353
-1.0693
-1.0862
-3.19416
-3.36206
1.92259
2.20317
-0.736357
-0.671431
0.155335
-0.390145
-1.82777
-3.26086
-4.16611
-4.71128
-4.89261
-5.78265
-6.13708
-3.24796
-3.21294
-4.64325
-4.82603
-5.12703
-5.4742
-6.5918
-7.08787
-3.18809
-3.35105
-5.06729
-5.41695
-0.283535
-0.649731
-1.78367
-3.34057
-4.67032
-5.79854
-6.77169
0.561577
-0.981941
-2.62266
-3.66518
-4.13788
-4.21878
-4.60468
0.16299
0.0426183
-0.478351
-1.99608
-2.30398
-0.287789
-0.349252
-1.30375
-1.49318
0.641757
0.7108
-2.51748
-2.56462
-0.371285
-0.294214
-1.52654
-1.43472
0.865702
1.09025
-2.49107
-2.49275
-0.236502
-0.147716
-1.25313
-1.10766
1.33326
1.57099
-2.52107
-2.65737
-0.0559288
-0.0219436
-0.988196
-0.992608
1.80527
1.98638
0.356014
0.324638
0.681456
0.941878
1.65404
1.21309
1.83991
1.98235
3.01538
1.04679
1.38632
2.41928
3.16256
2.41796
2.93029
4.12876
5.22247
1.55874
1.78325
3.69213
4.25328
3.204
3.55726
6.14245
6.94497
2.0196
2.25639
4.7641
5.19446
3.93033
4.28525
7.59428
8.08889
2.46331
2.67077
5.54564
5.86701
4.60857
4.92399
8.47281
8.82951
2.88441
3.11642
6.20838
6.65849
5.25932
5.6587
9.24494
9.88427
0.293485
1.17022
0.811403
2.23586
1.02305
2.54323
1.06438
3.07749
2.08866
3.0974
3.54707
4.93835
3.65861
5.03313
5.06979
7.24663
4.00419
5.08225
6.1211
7.50423
6.65773
8.3754
9.56897
11.9458
6.11239
7.0308
8.83114
9.94905
9.90004
11.1085
14.0105
15.5455
7.7921
8.38487
10.8486
11.5259
11.9318
12.4355
16.4197
16.8055
8.84171
9.24897
12.0396
12.506
12.7593
13.0677
16.9739
17.1787
9.69764
10.3713
13.0493
13.9365
13.5031
14.3851
17.6113
18.7227
1.16683
3.30141
1.55957
4.62861
1.47227
4.35924
2.04494
5.96964
5.07567
6.9088
7.02856
9.28799
7.25844
10.2318
9.56414
13.0264
8.71238
10.3643
11.5004
13.2025
13.178
16.0525
16.2923
19.1702
11.7231
12.784
14.1706
15.0572
18.8823
20.0522
21.9706
23.1171
13.6345
14.2983
15.8191
16.4507
20.5645
20.6572
23.548
23.5193
14.8267
15.3385
16.9891
17.5473
20.6194
20.7225
23.3701
23.4309
15.972
17.0499
18.2674
19.5026
21.1597
22.4733
23.8974
25.3748
2.05336
5.77036
2.04742
6.01557
2.38062
7.06772
2.53125
7.48331
8.58105
11.0021
9.11952
11.7091
11.1608
14.7393
11.8106
15.4962
11.5514
12.3943
12.2645
13.1547
13.4392
14.467
14.1446
15.2164
13.1934
13.9943
13.9265
14.6862
15.3864
16.1492
16.1043
16.8363
12.6864
13.6009
12.8367
13.7712
14.5597
15.6501
14.6945
15.8023
14.3779
15.1572
14.5478
15.315
16.5415
17.2937
16.6984
17.4447
15.689
16.9161
16.3394
17.5952
17.8835
19.3202
18.5157
19.977
18.1737
19.6133
18.7883
20.1788
20.6821
22.0428
21.2675
22.5808
16.7588
18.0057
16.9028
18.1518
18.914
20.3593
19.0486
20.4901
19.1822
20.5775
19.3185
20.694
21.6301
22.9492
21.7486
23.049
15.6565
16.5173
16.3501
17.1643
23.4736
24.873
24.0414
25.5791
17.2457
17.867
17.8769
18.5057
25.3851
25.353
26.203
26.2121
18.4244
19.0297
19.0914
19.7406
25.1653
25.2239
26.0279
26.1001
19.821
21.1608
20.5785
21.9736
25.7276
27.3193
26.6324
28.2835
1.993
5.77425
1.6382
4.78365
2.48655
7.37016
2.16115
6.56027
8.80817
11.4167
7.49743
9.96867
11.6642
15.3167
10.5929
14.1102
12.7227
13.6867
12.4319
13.4168
14.5319
15.6682
14.0636
15.2187
14.4479
15.198
14.0779
14.8393
16.5759
17.3154
16.1686
16.9409
12.2828
13.32
14.1303
12.4168
13.2869
15.4315
16.2344
14.5195
15.373
16.7958
18.0373
16.4576
17.686
18.9305
20.3586
18.5633
19.9788
19.1887
20.5154
18.8123
20.143
21.6045
22.8584
21.2164
22.4779
15.9612
17.1739
14.9853
16.1872
17.8901
19.3149
16.9116
18.3255
18.1715
19.4448
17.2296
18.591
20.5439
21.7681
19.601
20.9131
16.1339
16.957
14.9804
15.8699
23.4216
25.2711
22.175
24.0813
17.6885
18.3474
16.6606
17.3782
26.0488
26.1249
24.9351
25.0819
18.9709
19.6581
18.0523
18.7755
25.9748
26.0682
24.9947
25.1186
20.5253
21.9264
19.6563
21.014
26.6158
28.2708
25.6706
27.2739
1.13384
3.3429
0.539467
1.43334
1.7523
5.10501
0.780996
2.5998
5.30309
7.56047
2.45427
4.15332
8.38459
11.5506
5.03881
8.08577
9.22
10.3504
8.18468
9.19216
10.9873
12.2796
9.75974
10.9424
11.2336
12.0609
9.90531
10.7994
13.312
14.1299
11.923
12.8269
6.77805
8.22606
9.14605
6.84032
7.79468
10.2094
11.1249
8.67931
9.63074
13.4084
14.7096
11.9561
13.243
15.5035
16.9813
13.9956
15.4669
15.9484
17.3491
14.5253
16.0471
18.3347
19.6682
16.893
18.3655
10.3722
11.7891
8.99056
10.3399
12.1533
13.7806
10.5943
12.1498
12.9744
14.3613
11.5557
12.9907
15.224
16.5888
13.6259
15.0753
12.8951
13.8855
9.94571
11.0288
20.3415
21.9909
17.1122
18.6124
14.7783
15.5887
12.0657
13.0027
22.8075
23.0277
19.4693
19.8464
16.3301
17.0895
13.8265
14.6191
23.0392
23.2142
20.0281
20.3063
17.971
19.2375
15.4921
16.6258
23.7689
25.2666
20.8831
22.2259
-0.465253
-1.23744
-0.574792
-1.62505
-0.312725
-0.752639
-0.525605
-1.34552
-1.33615
-0.0556078
-2.23328
-1.69867
-0.254536
1.87908
-1.54436
-0.410847
1.99301
4.24673
-0.27639
1.24808
6.6458
9.62409
2.51092
4.88984
5.88877
7.37348
2.64376
3.95137
11.6336
13.3915
6.52671
8.04183
8.65741
9.74641
5.1396
6.19448
14.6545
15.4389
9.30562
10.314
10.6588
11.492
7.10542
7.93279
15.9433
16.4248
11.1256
11.8587
12.3549
13.3087
8.74
9.48734
17.0749
18.2255
12.6146
13.5529
-0.949656
-3.30176
-1.68338
-0.734286
-2.55304
-2.02791
-0.966752
0.352938
-2.4269
-1.67758
0.104511
1.01416
-1.44892
-0.935164
1.64025
2.91718
-0.754779
0.0717965
1.90849
2.78786
-0.553699
0.0136316
4.14916
5.3112
0.738179
1.62394
3.61111
4.39105
0.632093
1.32604
6.37014
7.32466
2.6208
3.76021
5.12854
5.65269
2.17265
2.56442
8.08309
8.84032
4.8089
5.41228
3.2393
3.74906
6.26291
6.93449
4.54402
5.11722
5.77441
6.04166
4.08842
4.29559
7.39064
7.72456
5.54363
5.81133
-0.55653
-1.66023
-2.68627
-3.14595
-2.57207
-2.18273
-3.86106
-3.7146
-1.77671
-1.16293
-3.31531
-3.00396
-1.82732
-1.45996
-3.54633
-3.45632
-0.475459
0.181818
-2.60663
-2.29627
-1.14288
-1.10023
-3.44683
-3.63366
0.652627
0.87828
-2.10382
-2.15628
-0.0501774
-0.967978
-2.42819
-3.46943
-3.99365
-3.87099
-4.12877
0.250871
-0.755342
-2.36157
-3.26974
-3.22276
-2.72022
-2.71084
0.408822
0.953373
-0.168234
-0.500902
1.5554
1.59112
0.427587
0.215172
2.27114
2.4502
-0.613142
-0.695089
1.68547
1.85821
0.130401
0.120206
2.6481
2.90547
-0.61338
-0.42085
2.13084
2.46031
0.285685
0.553258
3.25796
3.65767
-0.130516
0.121004
2.81163
3.15438
0.918861
1.24755
4.07791
4.49147
0.354673
0.459381
3.49823
3.80602
1.56206
1.7581
4.9119
5.32068
0.380358
1.36027
0.556947
1.92475
0.80948
2.18822
0.830023
2.70795
2.34932
3.2623
3.37146
4.8762
3.52718
4.68837
4.83051
6.8353
3.86153
4.42063
6.34485
7.68956
5.3521
5.94092
8.57546
10.0144
4.90757
5.36298
8.80044
9.6841
6.4656
6.94166
11.1275
11.9789
5.80303
6.21406
10.3408
10.8047
7.40067
7.83254
12.5836
12.9958
6.59498
6.97819
11.1572
11.5081
8.24208
8.66534
13.3123
13.6516
7.40029
7.944
11.9599
12.7619
9.14572
9.80309
14.1311
15.0617
1.27042
3.66479
1.47045
4.67152
1.49109
4.79254
2.34979
6.99935
6.13097
8.70866
8.29591
12.0586
8.48902
12.0582
11.7782
16.489
11.2332
13.341
15.694
18.9301
15.1098
17.3346
20.6158
23.9404
14.7926
15.6575
21.7241
22.241
18.584
19.134
26.4053
26.5301
16.0782
16.2336
22.1012
21.7049
19.2419
19.1496
25.9735
25.2031
16.3077
16.4717
21.3509
21.2641
19.0553
19.1264
24.5694
24.3396
16.8724
17.9338
21.5916
22.9004
19.5126
20.7183
24.6349
26.1081
4.60731
13.8417
5.48593
16.2655
5.49917
16.6562
6.17986
18.6894
23.2843
31.9921
26.7305
36.2086
27.8736
38.45
31.0648
42.8626
39.1204
37.7826
42.029
39.487
47.1097
46.5933
52.2535
50.6677
27.1006
27.7405
29.0073
29.6363
29.286
29.8739
31.1828
31.7931
28.6147
30.7042
31.6155
32.089
33.031
32.8766
33.7349
34.251
35.1409
32.8266
31.4727
32.2788
33.2926
34.0959
33.1158
34.0388
34.7809
35.7505
33.4427
35.0442
36.1056
36.3977
37.4094
36.7139
37.8819
38.0052
39.1516
37.9797
27.4582
26.3844
31.2532
29.7948
31.8092
30.2721
35.9246
34.007
25.5833
25.3025
28.6629
28.3082
29.047
28.6295
32.1415
31.7446
25.6029
27.1348
28.6397
30.356
28.9183
30.6386
32.1072
34.0377
10.3682
31.0966
10.9562
32.8889
11.0898
33.0941
11.5436
34.6096
52.0183
70.7869
55.0283
75.4475
55.2896
76.0314
58.1353
80.6788
42.061
39.3235
42.0054
39.2689
57.1185
53.2835
59.3313
55.134
33.2081
34.3656
34.0457
35.2391
35.3452
36.3803
36.1718
37.2448
35.843
34.6099
35.94
34.8746
36.3669
36.7052
37.9067
36.802
38.1905
37.0559
37.4731
38.3414
38.3195
39.2078
39.1699
40.1681
39.9802
41.0015
38.6533
39.1387
39.6032
40.0931
40.1808
40.7669
41.0494
41.6598
38.9717
39.9386
39.4089
40.5874
40.6686
41.7496
40.9666
42.2622
40.3232
40.901
40.7396
41.4918
41.7815
42.4687
42.0252
42.8833
33.6799
32.0027
34.8328
33.0865
38.6943
36.58
40.0063
37.8302
30.611
30.2589
31.5599
31.2099
33.8866
33.7272
34.7121
34.615
30.6362
32.4823
31.6147
33.5258
34.1629
36.258
35.0836
37.2475
13.1952
39.209
13.3308
39.6494
13.9329
41.6355
14.4399
43.114
65.2252
86.6844
65.9935
87.4931
69.7182
94.8775
71.8051
96.845
41.5269
39.0489
40.3632
37.821
60.4604
56.2256
60.5563
55.6892
36.2174
36.6195
35.0982
35.5521
41.8798
41.9287
40.8489
40.7799
34.8447
33.1221
33.8134
32.1114
39.9148
37.91
38.8734
36.8484
31.581
31.2277
30.675
30.3127
34.745
34.6425
34.0369
33.8505
31.6345
33.5479
30.6993
32.5534
35.1065
37.272
34.2816
36.3854
13.2551
39.4604
12.9416
38.5471
14.6424
43.7499
14.5758
43.5583
65.7715
87.1351
64.5189
85.4196
72.5965
97.3285
72.2753
96.4047
37.3433
34.0657
32.0647
29.1169
59.297
51.8668
52.6385
44.2931
32.1898
33.4218
30.8749
32.1424
34.5503
35.6203
33.1678
34.248
33.8728
29.0192
30.1566
26.9795
28.2152
31.2593
32.2474
29.1246
30.1787
30.0548
37.2923
38.0611
35.6702
36.4061
39.108
39.9809
37.5186
38.3265
38.2899
38.6233
36.7315
37.1504
39.7446
40.1957
38.2755
38.7733
33.6764
34.4024
31.6219
32.3854
35.2171
36.0476
33.25
34.0607
34.7467
35.0852
32.7641
33.3074
36.0294
36.4757
34.1207
34.7046
31.6467
29.9557
27.8999
26.4451
36.7927
34.4966
32.884
30.7552
28.7484
28.3763
25.5341
25.2521
32.5389
32.0341
29.34
28.8455
28.7312
30.4631
25.5982
27.149
32.4135
34.3675
29.1484
30.8922
1.90746
5.47694
0.823049
2.35191
3.30601
9.4598
1.33168
3.80604
8.95784
12.1228
4.27435
6.77714
14.6302
18.0255
6.88863
10.3217
14.3429
15.7906
12.3403
13.6937
16.3059
17.879
14.2158
15.683
17.3245
18.8854
15.2117
16.8702
19.4805
20.9223
17.2789
18.8386
9.45236
10.9671
7.11464
8.45556
11.1709
12.8186
8.71697
10.1819
12.3423
13.4046
9.74437
10.8947
14.2925
15.306
11.5664
12.6605
19.0647
20.4677
16.7487
18.0561
21.3411
22.7608
18.9682
20.2818
22.0836
23.7595
19.6633
21.4757
24.2546
25.7079
21.7602
23.3369
13.3557
14.9876
10.7373
12.2014
15.5487
17.1611
12.8253
14.268
16.4892
17.675
13.6279
14.9461
18.5479
19.569
15.5879
16.7359
21.1495
21.9866
13.0295
13.6768
26.5064
28.0614
17.5201
18.0816
21.7331
21.2092
14.1463
14.5256
26.4853
25.223
17.9316
17.7926
20.8571
20.8591
14.9238
15.4298
24.4206
24.1827
17.8627
18.1919
21.3006
22.6339
16.1139
17.2278
24.5416
26.037
18.8437
20.1016
-0.686151
-2.54915
-0.722806
-2.63565
-1.4425
-4.22106
-1.48497
-4.18166
-4.14765
-3.60393
-4.28821
-4.23527
-5.6141
-4.38206
-5.65976
-5.05961
0.127975
2.275
-2.69936
-1.46104
1.07498
3.65948
-2.88829
-1.34292
3.44133
4.84791
-0.17718
0.941862
4.87918
6.3714
0.156044
1.51732
6.27042
7.61977
1.87547
3.08012
7.93159
9.41607
2.74176
4.26466
8.84175
9.92642
4.45006
6.05673
10.7327
11.7504
6.04151
7.96962
8.95752
6.09098
6.96699
8.86622
9.86963
6.90187
7.79296
10.8324
11.7892
7.5603
8.28912
5.79792
6.42795
8.68218
9.43331
6.79384
7.44916
8.80005
9.18734
6.91224
7.23242
9.97564
10.4037
7.96283
8.31991
12.9473
14.0611
9.75944
10.4663
7.80826
8.44478
10.6214
11.3044
8.57628
9.19403
11.029
11.4911
8.97341
9.36288
11.8722
12.3595
9.72634
10.1382
-0.462281
-2.49698
-3.54992
-3.11581
-1.2234
-0.283804
-3.0406
-2.46177
-0.738147
0.412713
-2.78018
-2.05389
0.71503
1.64383
-1.75371
-1.22419
1.64668
2.7336
-1.1574
-0.469549
2.36225
2.75379
-0.831181
-0.75468
3.69809
4.21366
0.0717953
0.24191
-0.41243
-1.71358
-3.27273
-3.77769
-3.46405
-2.3962
-2.10153
0.340936
-0.668135
-2.08415
-2.67531
-2.30678
-1.54858
-1.33538
0.224607
0.551069
0.753181
1.45005
2.20963
0.523648
0.753535
1.5827
2.32566
0.75142
0.682794
2.71284
3.0521
0.83386
0.886433
2.88435
3.31973
0.683598
0.755435
3.3518
3.69155
0.993879
1.15147
3.71163
4.12691
0.985368
1.30293
4.10675
4.55578
1.44057
1.79138
4.59789
5.08198
1.70993
2.08007
5.01803
5.47243
2.21562
2.60085
5.56537
6.03634
2.4407
2.69799
5.93855
6.41687
2.97862
3.26969
6.52099
7.03612
1.29358
3.33346
1.51146
4.28222
1.4148
3.85414
1.68485
4.84095
4.60261
5.64852
6.65423
8.65345
5.22419
6.2094
7.43969
9.48961