# vtk DataFile Version 3.0
Gravity inversion using rectangular prisms
ASCII
DATASET UNSTRUCTURED_GRID

POINTS	4484	double
-1037.4	-1037.4	0
-1037.4	-1037.4	200
-1037.4	-1037.4	400
-1037.4	-1037.4	600
-1037.4	-1037.4	800
-1037.4	-1037.4	1000
-1037.4	-1037.4	1260
-1037.4	-1037.4	1598
-1037.4	-1037.4	2037.4
-1037.4	-598	0
-1037.4	-598	200
-1037.4	-598	400
-1037.4	-598	600
-1037.4	-598	800
-1037.4	-598	1000
-1037.4	-598	1260
-1037.4	-598	1598
-1037.4	-598	2037.4
-1037.4	-260	0
-1037.4	-260	200
-1037.4	-260	400
-1037.4	-260	600
-1037.4	-260	800
-1037.4	-260	1000
-1037.4	-260	1260
-1037.4	-260	1598
-1037.4	-260	2037.4
-1037.4	0	0
-1037.4	0	200
-1037.4	0	400
-1037.4	0	600
-1037.4	0	800
-1037.4	0	1000
-1037.4	0	1260
-1037.4	0	1598
-1037.4	0	2037.4
-1037.4	200	0
-1037.4	200	200
-1037.4	200	400
-1037.4	200	600
-1037.4	200	800
-1037.4	200	1000
-1037.4	200	1260
-1037.4	200	1598
-1037.4	200	2037.4
-1037.4	400	0
-1037.4	400	200
-1037.4	400	400
-1037.4	400	600
-1037.4	400	800
-1037.4	400	1000
-1037.4	400	1260
-1037.4	400	1598
-1037.4	400	2037.4
-1037.4	600	0
-1037.4	600	200
-1037.4	600	400
-1037.4	600	600
-1037.4	600	800
-1037.4	600	1000
-1037.4	600	1260
-1037.4	600	1598
-1037.4	600	2037.4
-1037.4	800	0
-1037.4	800	200
-1037.4	800	400
-1037.4	800	600
-1037.4	800	800
-1037.4	800	1000
-1037.4	800	1260
-1037.4	800	1598
-1037.4	800	2037.4
-1037.4	1000	0
-1037.4	1000	200
-1037.4	1000	400
-1037.4	1000	600
-1037.4	1000	800
-1037.4	1000	1000
-1037.4	1000	1260
-1037.4	1000	1598
-1037.4	1000	2037.4
-1037.4	1200	0
-1037.4	1200	200
-1037.4	1200	400
-1037.4	1200	600
-1037.4	1200	800
-1037.4	1200	1000
-1037.4	1200	1260
-1037.4	1200	1598
-1037.4	1200	2037.4
-1037.4	1400	0
-1037.4	1400	200
-1037.4	1400	400
-1037.4	1400	600
-1037.4	1400	800
-1037.4	1400	1000
-1037.4	1400	1260
-1037.4	1400	1598
-1037.4	1400	2037.4
-1037.4	1600	0
-1037.4	1600	200
-1037.4	1600	400
-1037.4	1600	600
-1037.4	1600	800
-1037.4	1600	1000
-1037.4	1600	1260
-1037.4	1600	1598
-1037.4	1600	2037.4
-1037.4	1800	0
-1037.4	1800	200
-1037.4	1800	400
-1037.4	1800	600
-1037.4	1800	800
-1037.4	1800	1000
-1037.4	1800	1260
-1037.4	1800	1598
-1037.4	1800	2037.4
-1037.4	2000	0
-1037.4	2000	200
-1037.4	2000	400
-1037.4	2000	600
-1037.4	2000	800
-1037.4	2000	1000
-1037.4	2000	1260
-1037.4	2000	1598
-1037.4	2000	2037.4
-1037.4	2260	0
-1037.4	2260	200
-1037.4	2260	400
-1037.4	2260	600
-1037.4	2260	800
-1037.4	2260	1000
-1037.4	2260	1260
-1037.4	2260	1598
-1037.4	2260	2037.4
-1037.4	2598	0
-1037.4	2598	200
-1037.4	2598	400
-1037.4	2598	600
-1037.4	2598	800
-1037.4	2598	1000
-1037.4	2598	1260
-1037.4	2598	1598
-1037.4	2598	2037.4
-1037.4	3037.4	0
-1037.4	3037.4	200
-1037.4	3037.4	400
-1037.4	3037.4	600
-1037.4	3037.4	800
-1037.4	3037.4	1000
-1037.4	3037.4	1260
-1037.4	3037.4	1598
-1037.4	3037.4	2037.4
-598	-1037.4	0
-598	-1037.4	200
-598	-1037.4	400
-598	-1037.4	600
-598	-1037.4	800
-598	-1037.4	1000
-598	-1037.4	1260
-598	-1037.4	1598
-598	-1037.4	2037.4
-598	-598	0
-598	-598	200
-598	-598	400
-598	-598	600
-598	-598	800
-598	-598	1000
-598	-598	1260
-598	-598	1598
-598	-598	2037.4
-598	-260	0
-598	-260	200
-598	-260	400
-598	-260	600
-598	-260	800
-598	-260	1000
-598	-260	1260
-598	-260	1598
-598	-260	2037.4
-598	0	0
-598	0	200
-598	0	400
-598	0	600
-598	0	800
-598	0	1000
-598	0	1260
-598	0	1598
-598	0	2037.4
-598	200	0
-598	200	200
-598	200	400
-598	200	600
-598	200	800
-598	200	1000
-598	200	1260
-598	200	1598
-598	200	2037.4
-598	400	0
-598	400	200
-598	400	400
-598	400	600
-598	400	800
-598	400	1000
-598	400	1260
-598	400	1598
-598	400	2037.4
-598	600	0
-598	600	200
-598	600	400
-598	600	600
-598	600	800
-598	600	1000
-598	600	1260
-598	600	1598
-598	600	2037.4
-598	800	0
-598	800	200
-598	800	400
-598	800	600
-598	800	800
-598	800	1000
-598	800	1260
-598	800	1598
-598	800	2037.4
-598	1000	0
-598	1000	200
-598	1000	400
-598	1000	600
-598	1000	800
-598	1000	1000
-598	1000	1260
-598	1000	1598
-598	1000	2037.4
-598	1200	0
-598	1200	200
-598	1200	400
-598	1200	600
-598	1200	800
-598	1200	1000
-598	1200	1260
-598	1200	1598
-598	1200	2037.4
-598	1400	0
-598	1400	200
-598	1400	400
-598	1400	600
-598	1400	800
-598	1400	1000
-598	1400	1260
-598	1400	1598
-598	1400	2037.4
-598	1600	0
-598	1600	200
-598	1600	400
-598	1600	600
-598	1600	800
-598	1600	1000
-598	1600	1260
-598	1600	1598
-598	1600	2037.4
-598	1800	0
-598	1800	200
-598	1800	400
-598	1800	600
-598	1800	800
-598	1800	1000
-598	1800	1260
-598	1800	1598
-598	1800	2037.4
-598	2000	0
-598	2000	200
-598	2000	400
-598	2000	600
-598	2000	800
-598	2000	1000
-598	2000	1260
-598	2000	1598
-598	2000	2037.4
-598	2260	0
-598	2260	200
-598	2260	400
-598	2260	600
-598	2260	800
-598	2260	1000
-598	2260	1260
-598	2260	1598
-598	2260	2037.4
-598	2598	0
-598	2598	200
-598	2598	400
-598	2598	600
-598	2598	800
-598	2598	1000
-598	2598	1260
-598	2598	1598
-598	2598	2037.4
-598	3037.4	0
-598	3037.4	200
-598	3037.4	400
-598	3037.4	600
-598	3037.4	800
-598	3037.4	1000
-598	3037.4	1260
-598	3037.4	1598
-598	3037.4	2037.4
-260	-1037.4	0
-260	-1037.4	200
-260	-1037.4	400
-260	-1037.4	600
-260	-1037.4	800
-260	-1037.4	1000
-260	-1037.4	1260
-260	-1037.4	1598
-260	-1037.4	2037.4
-260	-598	0
-260	-598	200
-260	-598	400
-260	-598	600
-260	-598	800
-260	-598	1000
-260	-598	1260
-260	-598	1598
-260	-598	2037.4
-260	-260	0
-260	-260	200
-260	-260	400
-260	-260	600
-260	-260	800
-260	-260	1000
-260	-260	1260
-260	-260	1598
-260	-260	2037.4
-260	0	0
-260	0	200
-260	0	400
-260	0	600
-260	0	800
-260	0	1000
-260	0	1260
-260	0	1598
-260	0	2037.4
-260	200	0
-260	200	200
-260	200	400
-260	200	600
-260	200	800
-260	200	1000
-260	200	1260
-260	200	1598
-260	200	2037.4
-260	400	0
-260	400	200
-260	400	400
-260	400	600
-260	400	800
-260	400	1000
-260	400	1260
-260	400	1598
-260	400	2037.4
-260	600	0
-260	600	200
-260	600	400
-260	600	600
-260	600	800
-260	600	1000
-260	600	1260
-260	600	1598
-260	600	2037.4
-260	800	0
-260	800	200
-260	800	400
-260	800	600
-260	800	800
-260	800	1000
-260	800	1260
-260	800	1598
-260	800	2037.4
-260	1000	0
-260	1000	200
-260	1000	400
-260	1000	600
-260	1000	800
-260	1000	1000
-260	1000	1260
-260	1000	1598
-260	1000	2037.4
-260	1200	0
-260	1200	200
-260	1200	400
-260	1200	600
-260	1200	800
-260	1200	1000
-260	1200	1260
-260	1200	1598
-260	1200	2037.4
-260	1400	0
-260	1400	200
-260	1400	400
-260	1400	600
-260	1400	800
-260	1400	1000
-260	1400	1260
-260	1400	1598
-260	1400	2037.4
-260	1600	0
-260	1600	200
-260	1600	400
-260	1600	600
-260	1600	800
-260	1600	1000
-260	1600	1260
-260	1600	1598
-260	1600	2037.4
-260	1800	0
-260	1800	200
-260	1800	400
-260	1800	600
-260	1800	800
-260	1800	1000
-260	1800	1260
-260	1800	1598
-260	1800	2037.4
-260	2000	0
-260	2000	200
-260	2000	400
-260	2000	600
-260	2000	800
-260	2000	1000
-260	2000	1260
-260	2000	1598
-260	2000	2037.4
-260	2260	0
-260	2260	200
-260	2260	400
-260	2260	600
-260	2260	800
-260	2260	1000
-260	2260	1260
-260	2260	1598
-260	2260	2037.4
-260	2598	0
-260	2598	200
-260	2598	400
-260	2598	600
-260	2598	800
-260	2598	1000
-260	2598	1260
-260	2598	1598
-260	2598	2037.4
-260	3037.4	0
-260	3037.4	200
-260	3037.4	400
-260	3037.4	600
-260	3037.4	800
-260	3037.4	1000
-260	3037.4	1260
-260	3037.4	1598
-260	3037.4	2037.4
0	-1037.4	0
0	-1037.4	200
0	-1037.4	400
0	-1037.4	600
0	-1037.4	800
0	-1037.4	1000
0	-1037.4	1260
0	-1037.4	1598
0	-1037.4	2037.4
0	-598	0
0	-598	200
0	-598	400
0	-598	600
0	-598	800
0	-598	1000
0	-598	1260
0	-598	1598
0	-598	2037.4
0	-260	0
0	-260	200
0	-260	400
0	-260	600
0	-260	800
0	-260	1000
0	-260	1260
0	-260	1598
0	-260	2037.4
0	0	0
0	0	200
0	0	400
0	0	600
0	0	800
0	0	1000
0	0	1260
0	0	1598
0	0	2037.4
0	200	0
0	200	200
0	200	400
0	200	600
0	200	800
0	200	1000
0	200	1260
0	200	1598
0	200	2037.4
0	400	0
0	400	200
0	400	400
0	400	600
0	400	800
0	400	1000
0	400	1260
0	400	1598
0	400	2037.4
0	600	0
0	600	200
0	600	400
0	600	500
0	600	600
0	600	800
0	600	1000
0	600	1260
0	600	1598
0	600	2037.4
0	700	400
0	700	500
0	700	600
0	800	0
0	800	200
0	800	400
0	800	500
0	800	600
0	800	800
0	800	1000
0	800	1260
0	800	1598
0	800	2037.4
0	1000	0
0	1000	200
0	1000	400
0	1000	600
0	1000	800
0	1000	1000
0	1000	1260
0	1000	1598
0	1000	2037.4
0	1200	0
0	1200	200
0	1200	400
0	1200	600
0	1200	800
0	1200	1000
0	1200	1260
0	1200	1598
0	1200	2037.4
0	1400	0
0	1400	200
0	1400	400
0	1400	600
0	1400	800
0	1400	1000
0	1400	1260
0	1400	1598
0	1400	2037.4
0	1600	0
0	1600	200
0	1600	400
0	1600	600
0	1600	800
0	1600	1000
0	1600	1260
0	1600	1598
0	1600	2037.4
0	1800	0
0	1800	200
0	1800	400
0	1800	600
0	1800	800
0	1800	1000
0	1800	1260
0	1800	1598
0	1800	2037.4
0	2000	0
0	2000	200
0	2000	400
0	2000	600
0	2000	800
0	2000	1000
0	2000	1260
0	2000	1598
0	2000	2037.4
0	2260	0
0	2260	200
0	2260	400
0	2260	600
0	2260	800
0	2260	1000
0	2260	1260
0	2260	1598
0	2260	2037.4
0	2598	0
0	2598	200
0	2598	400
0	2598	600
0	2598	800
0	2598	1000
0	2598	1260
0	2598	1598
0	2598	2037.4
0	3037.4	0
0	3037.4	200
0	3037.4	400
0	3037.4	600
0	3037.4	800
0	3037.4	1000
0	3037.4	1260
0	3037.4	1598
0	3037.4	2037.4
100	600	400
100	600	500
100	600	600
100	700	400
100	700	500
100	700	600
100	800	400
100	800	500
100	800	600
200	-1037.4	0
200	-1037.4	200
200	-1037.4	400
200	-1037.4	600
200	-1037.4	800
200	-1037.4	1000
200	-1037.4	1260
200	-1037.4	1598
200	-1037.4	2037.4
200	-598	0
200	-598	200
200	-598	400
200	-598	600
200	-598	800
200	-598	1000
200	-598	1260
200	-598	1598
200	-598	2037.4
200	-260	0
200	-260	200
200	-260	400
200	-260	600
200	-260	800
200	-260	1000
200	-260	1260
200	-260	1598
200	-260	2037.4
200	0	0
200	0	200
200	0	400
200	0	600
200	0	800
200	0	1000
200	0	1260
200	0	1598
200	0	2037.4
200	200	0
200	200	200
200	200	300
200	200	400
200	200	600
200	200	800
200	200	1000
200	200	1260
200	200	1598
200	200	2037.4
200	300	200
200	300	300
200	300	400
200	400	0
200	400	200
200	400	300
200	400	400
200	400	500
200	400	600
200	400	800
200	400	1000
200	400	1260
200	400	1598
200	400	2037.4
200	500	200
200	500	300
200	500	400
200	500	500
200	500	600
200	600	0
200	600	200
200	600	300
200	600	400
200	600	500
200	600	600
200	600	800
200	600	1000
200	600	1260
[...]
CELL_DATA	3476
SCALARS model double 1
LOOKUP_TABLE table0
-0.208405
-0.525135
-0.430518
0.527181
1.15532
0.896396
0.62853
0.434826
-0.304413
-0.937723
-0.784409
0.159726
1.11079
1.06418
0.805366
0.56701
-0.380291
-1.2888
-1.07497
-0.364709
1.15662
1.38081
1.08039
0.756959
-0.451361
-1.50794
-1.33853
-0.851367
1.10541
1.73524
1.41659
0.995645
-0.573157
-1.80414
-1.53081
-1.23919
1.18049
1.8912
1.50068
1.02493
-0.664203
-2.04178
-1.58717
-1.56904
1.1284
1.96064
1.54258
1.0346
-0.655771
-2.06828
-1.52487
-1.79248
0.960977
1.97512
1.55483
1.02986
-0.543294
-1.76216
-1.31708
-1.74765
0.705665
1.90354
1.52336
1.00577
-0.3494
-1.07393
-0.95212
-1.45896
0.398506
1.72049
1.43928
0.959595
-0.265388
-0.845443
-0.841943
-1.21016
0.0542008
1.42959
1.30485
0.89199
-0.275898
-0.999203
-0.95224
-1.03707
-0.217919
1.09008
1.13663
0.807124
-0.215776
-0.702645
-0.711052
-0.69983
-0.238901
0.797893
0.960375
0.711446
-0.0245788
0.046714
-0.0780777
-0.193082
-0.0115157
0.615862
0.792867
0.608698
0.254173
0.918891
0.563467
0.291322
0.234775
0.450489
0.523827
0.386791
0.291932
0.889417
0.671751
0.43012
0.292984
0.278284
0.29752
0.205354
0.216006
0.571881
0.503754
0.32214
0.270061
0.175506
0.162163
0.0764879
-0.161026
-0.335061
-0.692768
0.838593
1.1102
0.907222
0.667153
0.458836
-0.270744
-1.08736
-1.15631
0.322651
1.11718
1.1263
0.882139
0.605516
-0.298393
-2.06552
-1.66747
-0.127642
1.37462
1.57506
1.23642
0.822056
-0.399648
-2.28875
-2.17286
-0.393012
1.77752
2.20591
1.7124
1.10373
-0.749123
-3.04899
-2.8623
-0.551507
2.12954
2.51437
1.86527
1.148
-0.934447
-3.61079
-3.21804
-0.882219
2.34068
2.75597
1.98025
1.1724
-0.931035
-3.91068
-3.33193
-1.39528
2.32267
2.89299
2.04502
1.17607
-0.781951
-4.13545
-3.01419
-1.64848
2.01782
2.84207
2.02947
1.1517
-0.267279
-0.300595
-1.36907
-1.27973
1.48062
2.54694
1.9157
1.09604
-0.0460102
-0.151591
-1.2519
-1.41696
0.627112
2.01067
1.708
1.01107
-0.415357
-2.62459
-2.18806
-1.95658
-0.272402
1.36238
1.43854
0.903749
-0.61107
-1.83329
-1.48674
-1.6055
-0.635615
0.817283
1.15854
0.783943
-0.296286
-0.0663119
-0.386307
-0.719182
-0.466322
0.495559
0.90937
0.66062
0.367348
1.88067
0.559449
0.120536
-0.137078
0.274574
0.554655
0.405516
0.273545
0.987422
0.260408
0.0862313
-0.0511394
0.135265
0.295137
0.205038
0.090364
0.297927
0.0812736
-0.0301575
-0.0521521
0.052153
0.140656
0.0580208
-0.0887443
0.0454825
-0.470813
1.02516
1.19429
0.983925
0.727836
0.488836
-0.299743
-1.2095
-1.28029
0.582064
1.35107
1.28525
0.982592
0.642896
0.0357927
-2.277
-2.3299
0.486372
1.9819
1.93043
1.42136
0.873957
-1.12941
-2.95302
-2.45345
0.981623
3.11279
2.93311
2.04176
1.17811
-0.770321
-4.11653
-3.37687
1.55081
4.0556
3.51321
2.27737
1.22433
0.278167
-2.38406
-4.22247
1.87199
4.94306
4.06447
2.47932
1.24853
-0.493987
-2.41926
-5.37719
1.47595
5.43563
4.45814
2.61257
1.24758
0.226043
-7.27511
-5.98826
0.478128
5.12253
4.5085
2.6291
1.21517
-1.80502
0.946116
-1.98672
0.370261
4.00537
4.10026
2.50416
1.15119
-0.781338
-0.0861029
-2.28495
-0.990901
2.11144
3.25266
2.248
1.06126
-0.10139
-4.71812
-5.03749
-2.96654
0.124762
2.18965
1.90531
0.953832
-0.242897
0.114166
-2.53911
-2.72211
-0.9072
1.25832
1.54113
0.83701
-0.368426
-0.174591
-1.29362
-1.95731
-1.09971
0.653486
1.20914
0.717991
-1.07517
0.428837
-0.482801
-1.14253
-0.849245
0.24385
0.723114
0.443117
-0.309584
-0.688571
-0.812085
-0.810969
-0.616975
0.0563008
0.377447
0.22349
-0.21492
-0.474114
-0.552129
-0.53413
-0.439029
-0.0188917
0.169429
0.0491601
-0.152925
-0.250265
-0.0583734
1.14441
1.30317
1.07982
0.797329
0.519981
-0.705755
-1.34636
-0.896981
0.986127
1.63454
1.45867
1.08049
0.669237
-1.45179
-1.58437
-1.59583
1.47322
2.66905
2.28619
1.57912
0.891487
-1.11818
0.493975
-0.435066
3.05258
4.60503
3.63416
2.29793
1.17901
-0.923216
-3.76841
-0.847981
4.96529
6.37177
4.50876
2.58742
1.19995
-0.98825
-7.22777
-2.25592
7.06381
8.36297
5.42142
2.84444
1.19385
-0.626878
-5.56967
-7.91578
-5.35518
-9.63749
-6.85514
-4.44603
-1.18116
-5.68351
-2.09387
8.1394
9.88416
6.1489
3.02061
1.16118
-0.88631
-7.74467
-4.97841
6.37559
9.82453
6.37738
3.0625
1.10409
-1.94963
0.455088
-1.72159
3.86016
7.8976
5.93709
2.95618
1.03347
-1.40757
-3.04765
-3.21802
0.421725
4.74872
4.90966
2.72906
0.962773
-0.157926
-6.37611
-6.5227
-2.85123
1.60606
3.58195
2.42313
0.898832
-0.331957
-2.22071
-4.69687
-3.55869
-0.351558
2.32556
2.0765
0.837755
-0.377713
-2.66787
-3.7912
-3.22162
-1.11892
1.38759
1.71662
0.772187
-0.582546
-2.63407
-2.56324
-2.21948
-1.08879
0.623272
1.07267
0.505253
-0.554963
-2.00272
-1.4789
-1.25926
-0.778176
0.222455
0.579398
0.273048
-0.21071
-0.726744
-0.769396
-0.718381
-0.561463
0.0692432
0.269804
0.0639496
-0.206684
-1.00084
0.640768
1.10215
1.16664
0.93525
0.677613
0.420063
-0.736866
-2.48831
0.0799349
1.16387
1.51302
1.26011
0.897993
0.513727
-0.363213
-5.47569
-0.437958
2.04324
2.59024
1.99876
1.29313
0.64661
-1.26418
-6.9584
0.792847
4.39318
4.72892
3.25019
1.86599
0.80594
-1.44703
3.49486
-1.78137
-5.52284
-6.41813
-7.11933
-8.87741
-0.465362
-5.84686
4.48002
7.65853
6.79938
4.08684
2.06719
0.761202
-0.560382
-12.9075
-8.5812
-14.7899
-9.67648
1.74915
2.74061
2.97159
7.61398
0.0429401
6.20006
-0.854192
6.7031
6.97977
9.9729
9.16829
11.9366
12.6545
9.49711
5.01864
2.23577
0.688349
-1.1807
-11.4457
-7.17821
-2.68056
-1.35496
1.75506
12.5555
2.43085
11.4544
-0.634377
8.10358
-1.13414
6.60865
16.1139
19.0339
16.3505
19.6647
17.5166
12.0624
5.82407
2.33716
0.596302
-1.05891
-2.02604
-3.35788
-9.05265
-10.3991
-4.32141
2.78581
-14.9766
-12.1319
-2.96784
4.04099
-6.49821
0.745447
9.77357
15.754
0.221349
10.8904
16.759
12.909
6.19952
2.35449
0.503938
-1.8952
-5.27024
-2.6679
1.60014
0.26197
2.08628
-1.29553
4.88781
-2.21421
2.39485
10.2845
11.2397
6.03544
2.3207
0.439228
-1.98405
-2.95768
-3.4942
4.09427
8.09082
5.48546
2.28891
0.424391
-1.0827
-3.36359
-5.10249
-0.119028
4.75841
4.69117
2.26351
0.459253
-0.561735
-4.40021
-5.56466
-2.40875
2.02481
3.70583
2.187
0.517895
-0.666922
-2.00952
-3.93808
-2.74932
0.359433
2.66511
1.99689
0.567059
-0.77363
0.557425
-1.18805
-1.72765
-0.331968
1.4351
1.33267
0.417268
-0.0470874
0.00404404
-0.585033
-1.05425
-0.508081
0.624753
0.752289
0.246891
0.00856562
-0.261005
-0.510968
-0.667441
-0.573383
0.263712
0.349097
0.0477346
-0.265793
-0.577215
0.848909
0.92837
0.978064
0.774861
0.54971
0.314822
-0.428261
-0.810627
0.648158
1.05466
1.25134
1.00856
0.689278
0.343521
-1.39628
-1.56806
1.30268
2.00026
2.15274
1.56294
0.936289
0.366931
-1.69334
-1.3307
3.94814
4.41056
3.98126
2.49886
1.26934
0.36115
-1.15265
-11.3174
-1.68144
-0.246823
4.5096
-0.173429
3.71861
6.30559
7.94741
10.0737
7.78279
5.75133
3.06498
1.2969
0.224001
-2.1495
3.02224
-0.384585
9.06873
1.98396
11.1123
10.9544
36.9571
4.42026
20.5124
16.6474
28.8286
28.2732
38.8769
61.0079
56.2675
23.348
22.8433
29.5431
26.9467
26.3875
24.6414
33.53
28.5638
13.8824
8.21628
3.67072
1.26186
0.0524358
1.15471
15.0486
4.73513
14.7005
17.5021
55.0941
17.0071
49.0578
27.9869
34.9487
28.9219
30.6294
83.0256
91.3137
77.5095
91.3172
43.9241
43.5426
42.5983
43.8109
58.6847
50.6598
63.7263
52.7104
23.7795
20.3093
25.7952
21.4241
23.9724
20.8214
26.0495
21.8696
10.8283
4.16879
1.16635
-0.129648
2.28227
5.09941
1.92003
-2.52551
8.47659
27.214
5.86694
11.0253
12.0113
20.5717
-6.3578
-1.93224
48.0955
70.4483
17.3814
26.0925
28.3152
36.0503
8.8987
24.4689
52.9869
48.5311
33.2031
39.0372
26.8699
23.4286
25.7654
23.1525
28.2831
24.4466
27.6861
24.2247
12.2252
4.4342
1.07201
-0.278337
-0.970769
-13.5142
-9.69584
-11.4594
-10.7318
-4.65479
5.15376
-8.59261
-6.90741
0.793268
12.5319
-5.66545
3.08635
13.9058
21.7154
-0.200734
10.6856
18.2494
11.8872
4.62224
1.10417
-0.340866
-2.01044
-8.07101
-5.87497
1.18073
-6.83687
-1.10618
-1.42121
7.42069
-2.94965
5.03939
11.3146
11.0091
5.03853
1.35848
-0.283673
-1.60852
-6.72745
-5.71839
-0.900086
-5.16787
-1.43801
-2.26891
5.1056
-3.19378
3.15284
2.77714
6.49865
1.2237
4.65105
9.14804
12.0506
7.11361
10.1853
9.68052
5.51522
1.77283
-0.118415
-1.34856
-5.48519
-5.21646
2.09856
6.89079
5.42801
2.13612
0.0979672
-1.35566
-4.07694
-5.17106
-1.06387
3.64024
4.52607
2.24287
0.297075
-0.290765
0.666589
-1.75717
-1.52233
1.13128
2.65275
1.62176
0.304015
0.391198
1.11882
-0.0269735
-1.22741
-0.180192
1.20302
0.956201
0.214883
0.0929762
0.0506378
-0.393393
-0.705949
-0.596036
0.549929
0.448701
0.0349693
-0.314095
0.163608
0.723862
0.749468
0.796002
0.622598
0.423925
0.208346
0.132155
0.0162052
0.516273
0.783744
0.936654
0.743359
0.471681
0.165653
-1.13242
0.387833
1.13926
1.45344
1.52392
1.05556
0.541071
0.0655602
-1.71743
3.36931
3.54746
3.19941
2.68872
1.52489
0.566778
-0.13145
-0.742455
-2.69332
1.08831
6.87188
-1.95309
3.4924
2.25489
9.94206
8.43858
10.438
15.2164
14.4496
10.5001
10.6793
14.8251
13.4892
8.12925
5.39789
3.59249
1.60479
0.344404
-0.382653
9.12445
28.5974
24.4575
67.2111
11.3913
42.4151
32.6422
87.811
54.8131
63.7845
103.335
85.312
63.4934
66.7999
107.684
82.2243
23.9214
20.2575
31.6793
23.8311
22.2791
19.9038
27.9
22.4895
9.35263
4.65365
1.50776
-0.00432697
-0.678664
37.2467
106.745
35.5903
101.647
45.871
122.176
46.1323
131.64
135.522
142.537
134.585
135.666
168.296
161.412
168.945
159.329
70.4436
51.2982
81.6189
55.4066
64.9223
49.9437
74.8327
52.7207
18.189
15.0875
20.5488
16.2028
16.749
14.4215
18.528
15.1902
5.59867
1.205
-0.420831
-0.975141
25.7426
66.7987
6.68239
24.1089
31.2817
86.0263
9.91452
33.4382
96.4574
103.708
44.8141
43.0186
122.933
122.338
53.5818
62.7937
74.432
60.1765
55.0993
52.9908
72.3585
59.125
59.318
53.2018
25.4389
19.603
26.2989
19.938
22.7716
18.166
23.2596
18.1545
6.16265
0.963591
-0.720458
-1.19613
-0.0705293
1.77983
-0.221445
-1.22301
1.07377
4.04656
-0.0240401
-3.45966
6.39835
18.3782
-4.72084
0.295274
9.20592
36.0096
-2.81898
13.2163
26.2337
31.7373
6.91565
20.5736
33.5214
35.0678
20.6976
28.241
21.964
19.0162
20.8178
18.9409
20.6854
18.1804
20.1302
18.1161
7.54226
1.48003
-0.638947
-1.2586
-2.88736
-4.80094
-0.270695
-3.84087
-0.90256
-2.33291
0.629689
3.82214
-6.97243
-3.67254
-4.73817
-0.0187555
1.69751
13.8789
12.4648
23.0326
3.57858
16.7387
3.24383
13.6561
26.1882
34.5856
31.0407
36.708
22.4444
11.5331
3.26897
-0.0300164
-1.1176
-3.04605
-5.40772
-1.62961
-6.30827
2.32723
4.97827
1.21087
-0.128112
-5.04573
1.33739
-7.20592
-2.64006
13.5797
24.0186
4.59777
13.5581
3.93672
12.7979
0.771522
8.21929
31.1589
37.915
20.1245
29.0707
17.325
19.8523
13.8867
17.4193
31.8226
28.9562
28.9792
27.4151
15.6329
5.65901
0.941902
-0.801739
-2.31958
-5.41437
-2.30191
6.19233
-7.4515
-0.902948
11.4503
20.5997
-0.124131
6.91806
9.50122
13.4534
3.36079
8.38543
20.6739
22.1053
11.4213
15.8203
14.5337
7.07913
1.86678
-0.405781
-1.55199
-5.69564
-7.00105
2.1109
8.85029
6.63432
2.36711
-0.037856
-0.649134
-3.60441
-4.74887
-2.71768
3.01119
4.05642
1.86442
0.153956
0.00175561
-0.2801
-0.895779
-2.19758
-0.0835015
1.8294
1.14181
0.162249
-0.0660543
-0.268611
-0.76501
-0.998517
-0.719236
0.848394
0.538448
0.0112105
-0.298742
0.473385
0.600171
0.61687
0.646062
0.48753
0.303357
0.101444
-0.8766
0.0186476
0.303152
0.527468
0.648239
0.492862
0.255336
-0.01613
-1.30013
-0.00690819
0.554509
0.844659
0.892521
0.544205
0.132546
-0.247319
-0.787318
2.31427
1.98641
1.71214
1.27186
0.477305
-0.185957
-0.649015
-0.204209
4.59971
2.96025
7.2977
-0.46226
2.30633
1.23631
9.62258
5.17307
5.07375
7.66833
6.48288
5.02316
5.50193
7.62326
6.40597
3.88163
2.21716
1.0078
-0.0622689
-0.704503
-1.0242
8.55387
34.6361
25.3907
87.9977
4.83632
26.3807
9.22508
40.3771
34.1966
30.2752
62.8966
40.3965
29.0982
27.8335
38.0586
32.0123
7.28664
6.41064
10.2964
7.82626
6.38577
6.04081
7.78178
6.64216
2.00026
-0.170324
-1.12831
-1.43394
-1.45471
39.7203
108.287
38.0753
100.522
21.439
65.5641
15.8999
53.4023
141.322
117.894
151.316
126.634
89.2345
97.9716
85.0803
96.0666
28.5634
18.4028
36.6777
20.9249
20.7544
14.8033
24.6721
15.525
2.07318
1.00659
3.23874
1.56393
0.638753
0.102139
1.17422
0.25852
-2.45643
-2.61562
-2.24394
-1.8722
23.2425
68.4101
7.6099
24.8037
10.0041
28.6986
3.51994
9.70153
107.002
98.9056
41.7037
66.6743
58.1746
74.6224
28.1348
58.4458
41.1065
25.7146
40.619
26.3777
26.4145
18.0102
25.8592
17.5783
3.51738
0.910538
4.76635
1.71939
0.276091
-1.24015
0.861716
-0.913864
-4.22346
-3.68018
-2.79581
-2.16583
-0.187914
3.00057
-1.18226
0.264112
2.18412
5.01617
4.39281
10.6146
10.4188
35.1624
3.35187
19.9064
19.1698
41.5083
20.9608
38.2958
32.3766
27.7252
35.2066
32.7546
27.4573
24.1533
33.7914
29.3817
10.2306
7.18499
14.3106
9.96348
7.13837
5.0499
10.5937
7.38723
-1.31145
-2.88689
-2.66718
-2.22282
1.34672
12.2925
11.7869
31.6755
14.2312
40.8316
27.0472
72.1809
27.9612
35.6825
52.0454
60.9923
64.5033
81.1849
100.097
114.591
45.7733
50.7835
56.4949
57.8513
66.2382
62.1854
87.7684
73.7735
32.0848
23.4655
41.1002
28.7925
32.4492
24.2708
42.0027
29.6096
11.1327
8.70495
14.5211
11.11
10.6005
8.36025
13.7389
10.5596
0.395718
-1.68089
-1.99174
12.9512
33.7818
3.34966
11.514
26.5101
72.0146
8.98251
32.0316
50.8043
64.5053
27.7353
43.3678
97.851
117.809
56.551
76.779
55.6286
57.5805
39.2044
42.9526
96.104
86.4632
71.9468
72.1891
48.7285
38.2941
45.5255
37.6084
58.2346
43.8673
58.79
44.5683
23.5517
18.6749
26.0686
20.3998
24.5284
19.5889
27.3989
21.4386
4.81934
-0.135742
-1.52353
-0.94531
-1.07219
-3.74115
-2.99442
1.84899
4.56939
-0.974835
-4.40321
6.87094
17.0362
-3.13358
1.06689
17.4571
31.5404
-3.71719
4.18208
25.2911
33.509
6.8218
12.2921
45.5264
53.3148
10.9883
20.1144
31.8507
30.3016
15.4335
19.9387
43.5187
38.1914
24.3931
27.3362
24.6594
21.2543
22.1447
20.2615
27.626
23.5397
25.6894
22.8464
7.93358
1.35749
-0.951902
-1.02405
-6.28026
-2.73817
3.4329
-7.97877
-5.2912
-3.96325
6.34754
-10.8202
-5.47378
7.60784
13.0252
-2.21546
3.77024
11.7524
17.1453
-0.633155
6.56237
14.8556
8.25473
2.27096
-0.42123
0.189328
-5.96878
-6.60267
-3.48612
5.2934
5.25188
1.96691
-0.035523
-0.261996
-1.97541
-2.13865
-3.15227
0.0976629
2.38924
1.25331
0.0802892
-0.243662
-0.701879
-1.25489
-1.30061
-0.783519
1.11627
0.592214
-0.0308216
-0.0128944
0.682247
0.588023
0.555684
0.541597
0.373204
0.188653
-0.00576395
0.108695
0.153255
0.250876
0.380602
0.429836
0.271431
0.0454549
-0.198958
0.0554619
-0.0318791
0.231967
0.406245
0.359817
0.0662754
-0.271911
-0.561739
0.00963008
0.605644
0.679836
0.44396
-0.0348608
-0.545474
-0.939865
-1.16622
-0.156442
0.717954
0.0250505
-0.763992
-1.52382
-1.73287
-1.75575
-1.65861
1.59563
-2.29551
1.70557
-0.263978
-3.87095
-17.6683
-10.5706
-33.1846
-14.5252
-15.3247
-14.1815
-15.7413
-18.9362
-16.9386
-25.6677
-20.2732
-8.09315
-7.66771
-8.5472
-8.01511
-8.32068
-7.67427
-9.87991
-8.66008
-5.63494
-5.15125
-3.80775
-2.85463
-2.21039
1.09256
8.38572
0.487615
1.9337
-17.3612
-55.856
-22.8719
-44.8262
-20.5096
-37.0163
-16.4541
-31.7052
-62.1132
-55.5173
-56.825
-54.5593
-26.5515
-25.9414
-25.9286
-25.4746
-31.0567
-28.6156
-31.7795
-29.1942
-16.0724
-15.5689
-16.0846
-15.6223
-16.9923
-16.1959
-17.4355
-16.5783
-11.0339
-6.48123
-4.02128
-2.72862
0.0380176
-4.96272
0.179384
-10.1712
-16.8366
-11.9468
-9.15973
-0.759122
-14.7284
-21.0857
-13.6953
-16.9094
-28.3464
-32.8676
-23.5182
-27.9211
-29.0557
-30.6363
-26.7014
-28.1075
-35.0191
-35.244
-32.7863
-33.3135
-21.9546
-21.5839
-21.0574
-20.6767
-23.8175
-23.035
-23.1569
-22.4259
-15.1065
-8.25492
-4.76457
-3.07168
1.55341
-1.83558
5.46803
14.9326
-1.5486
12.0213
9.37394
12.639
16.616
21.225
33.6048
37.6721
22.0385
21.4114
26.5981
29.9597
0.408761
-2.65266
12.5765
6.9358
-3.21724
-5.56288
4.51568
1.6977
-8.95446
-9.65742
-4.42127
-6.07052
-10.6911
-11.0569
-7.04686
-8.02117
-10.6537
-7.09743
-4.54704
-3.10692
18.5149
54.7707
38.6828
101.924
22.9698
72.3863
40.7182
111.644
82.1505
102.285
140.731
131.009
106.968
122.225
163.052
144.885
76.3159
60.2353
106.177
79.7264
72.9306
59.0442
100.891
75.6878
25.5247
18.1375
37.5173
25.2288
23.2845
17.1526
33.4364
23.2736
5.60801
3.66001
9.37999
6.48297
4.79627
3.09091
8.0814
5.58541
-2.60158
-3.22285
-2.78714
33.2966
96.3975
14.3253
48.3473
38.6602
102.9
19.71
58.3587
134.388
152.295
81.5967
103.631
156.234
169.311
97.9878
115.43
114.149
101.441
88.6448
86.7899
122.736
109.432
102.909
97.5862
65.0144
46.3702
69.0753
49.1692
63.4535
46.1299
68.5634
48.7297
23.6601
18.4522
27.5783
21.0203
22.7168
17.9957
26.2706
20.2926
3.22779
-1.23195
-2.18883
2.64808
10.309
-0.576067
-3.69903
4.98591
16.3021
0.348212
-3.38414
26.916
44.7418
-3.74904
3.94256
34.1986
52.2599
-3.5331
4.77823
56.3206
63.3853
11.216
22.7625
65.8574
69.6242
12.1913
26.808
50.7706
43.1008
29.448
31.8128
52.6746
44.6177
33.505
34.4028
30.0751
24.9043
28.8264
24.7022
29.7763
24.788
28.8913
24.6123
7.53491
0.682092
-1.47691
-0.550913
-13.4556
-16.728
-15.0583
-19.5384
-13.4933
-17.9917
-10.0068
-18.5973
-9.73609
6.4074
-15.4994
-6.96237
-8.88179
9.52602
-14.6887
-5.44992
14.3715
20.167
-0.178131
8.08811
16.4669
21.9102
1.26226
10.003
18.2905
8.6339
1.91978
-0.818959
0.397785
-8.68274
-7.7968
-2.79808
7.22318
5.77768
1.86639
-0.256442
-0.286271
-2.45622
-2.31184
-3.32733
0.641149
2.73797
1.24711
-0.0338606
-0.293485
-0.718543
-1.29158
-1.3191
-0.616084
1.30667
0.589546
-0.0954549
0.360485
0.977568
0.686512
0.560478
0.477087
0.274898
0.0773437
-0.113946
0.848468
0.442131
0.347944
0.340749
0.275925
0.074264
-0.15874
-0.381026
0.669188
0.148743
0.170796
0.136257
-0.0820194
-0.378575
-0.664186
-0.868583
0.442455
-0.155069
-0.17284
-0.588675
-1.21568
-1.50868
-1.65661
-1.65748
-1.37271
-3.35537
-2.77133
-8.24155
0.633996
-3.43493
-2.793
-6.94996
-3.32543
-3.15654
-5.46715
-4.48388
-2.47094
-2.30603
-4.85495
-3.87519
-3.08276
-3.38454
-3.82611
-3.26455
-2.71812
-2.24155
-5.91706
-40.5678
-22.5088
-78.587
-10.9927
-42.9369
-29.1543
-101.974
-47.4239
-45.408
-62.9774
-51.9272
-47.6443
-45.3108
-73.2644
-54.7951
-19.3314
-18.2288
-22.1891
-19.8625
-19.2024
-17.9379
-23.0333
-20.1038
-11.7723
-11.3859
-12.6742
-12.0587
-11.4271
-11.0864
-12.5811
-11.9417
-9.39331
-6.09873
-4.07925
-2.8759
-36.1849
-121.282
-45.5466
-109.834
-46.8901
-149.725
-52.5837
-139.686
-144.167
-141.445
-137.473
-137.587
-159.339
-146.238
-150.602
-143.904
-61.453
-55.4756
-62.5806
-55.8253
-63.2783
-56.1192
-64.745
-56.9349
-28.6013
-27.2495
-29.2866
-27.6921
-28.8431
-27.334
-29.7218
-27.9579
-17.3086
-9.41326
-5.43222
-3.44647
-36.4041
-23.4925
-14.9871
-16.9383
-42.6204
-37.4628
-19.2358
-20.8869
-56.4981
-61.9804
-52.5624
-55.1031
-62.6636
-65.5044
-55.6221
-57.5052
-55.2079
-54.4084
-52.0576
-51.5855
-56.4778
-54.9818
-53.0571
-52.2071
-34.632
-33.3455
-33.6092
-32.4185
-34.8534
-33.4856
-33.805
-32.624
-21.3152
-11.2008
-6.18546
-3.79355
0.0122686
3.92996
10.73
-1.30044
3.53472
3.73789
10.1157
-1.68874
-4.03078
-4.10023
-1.64723
2.4653
-5.44727
-5.46049
-2.92106
0.802077
-16.8466
-17.4632
-11.1906
-11.2969
-17.2473
-17.6015
-12.085
-12.1759
-17.8093
-17.7545
-14.4372
-14.7484
-17.8369
-17.7998
-14.8664
-15.1245
-15.1847
-9.47435
-5.80295
-3.78348
23.8154
72.3276
41.9941
103.796
23.8865
66.9937
39.8397
96.9367
101.384
107.873
163.235
135.52
94.3107
102.658
142.758
121.067
51.9623
41.3044
79.1658
56.988
47.2716
38.5558
67.572
50.1941
14.1707
10.2933
22.555
15.6902
12.7524
9.51515
19.2729
13.8761
0.865706
-0.394652
3.81517
1.97219
0.35999
-0.761307
2.82476
1.28356
-4.46948
-4.2531
-3.38712
39.7754
109.072
17.9069
60.2087
36.8326
106.914
16.5058
53.6634
159.677
149.942
98.8734
106.399
139.576
132.459
86.1565
91.0076
117.014
100.264
105.17
95.4912
103.149
91.1769
91.9751
84.5137
52.462
38.1926
59.2305
41.6955
46.6591
35.242
51.4589
37.5039
18.0005
14.3886
21.3755
16.684
16.4515
13.4055
19.1563
15.2863
1.5657
-2.07228
-2.70435
5.95573
17.4166
-3.4919
-7.21748
4.48851
14.3307
0.247029
-3.04425
34.0106
50.3406
-4.53051
3.69378
28.9401
46.7711
-3.43053
2.25061
64.9955
64.3743
11.2219
26.2696
54.2221
55.2602
7.14509
22.3393
48.5911
40.9332
34.0519
33.682
42.6674
37.2531
30.432
30.6384
26.4186
22.0371
26.4214
22.3302
24.4049
20.8768
24.3247
21.0405
6.08677
-0.00822477
-1.91465
-0.65642
-12.6458
-16.4762
-7.94318
-15.3228
-9.27151
-15.196
-7.53895
-13.8332
-6.43796
11.0971
-11.7344
-3.33053
-5.48298
9.49197
-10.1426
-2.95396
16.0997
20.9242
2.19852
10.6107