# vtk DataFile Version 3.0
Gravity inversion using rectangular prisms
ASCII
DATASET UNSTRUCTURED_GRID

POINTS	32000	double
25	25	25
25	25	75
25	25	125
25	25	175
25	25	225
25	25	275
25	25	325
25	25	375
25	25	425
25	25	475
25	25	525
25	25	575
25	25	625
25	25	675
25	25	725
25	25	775
25	25	825
25	25	875
25	25	925
25	25	975
25	75	25
25	75	75
25	75	125
25	75	175
25	75	225
25	75	275
25	75	325
25	75	375
25	75	425
25	75	475
25	75	525
25	75	575
25	75	625
25	75	675
25	75	725
25	75	775
25	75	825
25	75	875
25	75	925
25	75	975
25	125	25
25	125	75
25	125	125
25	125	175
25	125	225
25	125	275
25	125	325
25	125	375
25	125	425
25	125	475
25	125	525
25	125	575
25	125	625
25	125	675
25	125	725
25	125	775
25	125	825
25	125	875
25	125	925
25	125	975
25	175	25
25	175	75
25	175	125
25	175	175
25	175	225
25	175	275
25	175	325
25	175	375
25	175	425
25	175	475
25	175	525
25	175	575
25	175	625
25	175	675
25	175	725
25	175	775
25	175	825
25	175	875
25	175	925
25	175	975
25	225	25
25	225	75
25	225	125
25	225	175
25	225	225
25	225	275
25	225	325
25	225	375
25	225	425
25	225	475
25	225	525
25	225	575
25	225	625
25	225	675
25	225	725
25	225	775
25	225	825
25	225	875
25	225	925
25	225	975
25	275	25
25	275	75
25	275	125
25	275	175
25	275	225
25	275	275
25	275	325
25	275	375
25	275	425
25	275	475
25	275	525
25	275	575
25	275	625
25	275	675
25	275	725
25	275	775
25	275	825
25	275	875
25	275	925
25	275	975
25	325	25
25	325	75
25	325	125
25	325	175
25	325	225
25	325	275
25	325	325
25	325	375
25	325	425
25	325	475
25	325	525
25	325	575
25	325	625
25	325	675
25	325	725
25	325	775
25	325	825
25	325	875
25	325	925
25	325	975
25	375	25
25	375	75
25	375	125
25	375	175
25	375	225
25	375	275
25	375	325
25	375	375
25	375	425
25	375	475
25	375	525
25	375	575
25	375	625
25	375	675
25	375	725
25	375	775
25	375	825
25	375	875
25	375	925
25	375	975
25	425	25
25	425	75
25	425	125
25	425	175
25	425	225
25	425	275
25	425	325
25	425	375
25	425	425
25	425	475
25	425	525
25	425	575
25	425	625
25	425	675
25	425	725
25	425	775
25	425	825
25	425	875
25	425	925
25	425	975
25	475	25
25	475	75
25	475	125
25	475	175
25	475	225
25	475	275
25	475	325
25	475	375
25	475	425
25	475	475
25	475	525
25	475	575
25	475	625
25	475	675
25	475	725
25	475	775
25	475	825
25	475	875
25	475	925
25	475	975
25	525	25
25	525	75
25	525	125
25	525	175
25	525	225
25	525	275
25	525	325
25	525	375
25	525	425
25	525	475
25	525	525
25	525	575
25	525	625
25	525	675
25	525	725
25	525	775
25	525	825
25	525	875
25	525	925
25	525	975
25	575	25
25	575	75
25	575	125
25	575	175
25	575	225
25	575	275
25	575	325
25	575	375
25	575	425
25	575	475
25	575	525
25	575	575
25	575	625
25	575	675
25	575	725
25	575	775
25	575	825
25	575	875
25	575	925
25	575	975
25	625	25
25	625	75
25	625	125
25	625	175
25	625	225
25	625	275
25	625	325
25	625	375
25	625	425
25	625	475
25	625	525
25	625	575
25	625	625
25	625	675
25	625	725
25	625	775
25	625	825
25	625	875
25	625	925
25	625	975
25	675	25
25	675	75
25	675	125
25	675	175
25	675	225
25	675	275
25	675	325
25	675	375
25	675	425
25	675	475
25	675	525
25	675	575
25	675	625
25	675	675
25	675	725
25	675	775
25	675	825
25	675	875
25	675	925
25	675	975
25	725	25
25	725	75
25	725	125
25	725	175
25	725	225
25	725	275
25	725	325
25	725	375
25	725	425
25	725	475
25	725	525
25	725	575
25	725	625
25	725	675
25	725	725
25	725	775
25	725	825
25	725	875
25	725	925
25	725	975
25	775	25
25	775	75
25	775	125
25	775	175
25	775	225
25	775	275
25	775	325
25	775	375
25	775	425
25	775	475
25	775	525
25	775	575
25	775	625
25	775	675
25	775	725
25	775	775
25	775	825
25	775	875
25	775	925
25	775	975
25	825	25
25	825	75
25	825	125
25	825	175
25	825	225
25	825	275
25	825	325
25	825	375
25	825	425
25	825	475
25	825	525
25	825	575
25	825	625
25	825	675
25	825	725
25	825	775
25	825	825
25	825	875
25	825	925
25	825	975
25	875	25
25	875	75
25	875	125
25	875	175
25	875	225
25	875	275
25	875	325
25	875	375
25	875	425
25	875	475
25	875	525
25	875	575
25	875	625
25	875	675
25	875	725
25	875	775
25	875	825
25	875	875
25	875	925
25	875	975
25	925	25
25	925	75
25	925	125
25	925	175
25	925	225
25	925	275
25	925	325
25	925	375
25	925	425
25	925	475
25	925	525
25	925	575
25	925	625
25	925	675
25	925	725
25	925	775
25	925	825
25	925	875
25	925	925
25	925	975
25	975	25
25	975	75
25	975	125
25	975	175
25	975	225
25	975	275
25	975	325
25	975	375
25	975	425
25	975	475
25	975	525
25	975	575
25	975	625
25	975	675
25	975	725
25	975	775
25	975	825
25	975	875
25	975	925
25	975	975
25	1025	25
25	1025	75
25	1025	125
25	1025	175
25	1025	225
25	1025	275
25	1025	325
25	1025	375
25	1025	425
25	1025	475
25	1025	525
25	1025	575
25	1025	625
25	1025	675
25	1025	725
25	1025	775
25	1025	825
25	1025	875
25	1025	925
25	1025	975
25	1075	25
25	1075	75
25	1075	125
25	1075	175
25	1075	225
25	1075	275
25	1075	325
25	1075	375
25	1075	425
25	1075	475
25	1075	525
25	1075	575
25	1075	625
25	1075	675
25	1075	725
25	1075	775
25	1075	825
25	1075	875
25	1075	925
25	1075	975
25	1125	25
25	1125	75
25	1125	125
25	1125	175
25	1125	225
25	1125	275
25	1125	325
25	1125	375
25	1125	425
25	1125	475
25	1125	525
25	1125	575
25	1125	625
25	1125	675
25	1125	725
25	1125	775
25	1125	825
25	1125	875
25	1125	925
25	1125	975
25	1175	25
25	1175	75
25	1175	125
25	1175	175
25	1175	225
25	1175	275
25	1175	325
25	1175	375
25	1175	425
25	1175	475
25	1175	525
25	1175	575
25	1175	625
25	1175	675
25	1175	725
25	1175	775
25	1175	825
25	1175	875
25	1175	925
25	1175	975
25	1225	25
25	1225	75
25	1225	125
25	1225	175
25	1225	225
25	1225	275
25	1225	325
25	1225	375
25	1225	425
25	1225	475
25	1225	525
25	1225	575
25	1225	625
25	1225	675
25	1225	725
25	1225	775
25	1225	825
25	1225	875
25	1225	925
25	1225	975
25	1275	25
25	1275	75
25	1275	125
25	1275	175
25	1275	225
25	1275	275
25	1275	325
25	1275	375
25	1275	425
25	1275	475
25	1275	525
25	1275	575
25	1275	625
25	1275	675
25	1275	725
25	1275	775
25	1275	825
25	1275	875
25	1275	925
25	1275	975
25	1325	25
25	1325	75
25	1325	125
25	1325	175
25	1325	225
25	1325	275
25	1325	325
25	1325	375
25	1325	425
25	1325	475
25	1325	525
25	1325	575
25	1325	625
25	1325	675
25	1325	725
25	1325	775
25	1325	825
25	1325	875
25	1325	925
25	1325	975
25	1375	25
25	1375	75
25	1375	125
25	1375	175
25	1375	225
25	1375	275
25	1375	325
25	1375	375
25	1375	425
25	1375	475
25	1375	525
25	1375	575
25	1375	625
25	1375	675
25	1375	725
25	1375	775
25	1375	825
25	1375	875
25	1375	925
25	1375	975
25	1425	25
25	1425	75
25	1425	125
25	1425	175
25	1425	225
25	1425	275
25	1425	325
25	1425	375
25	1425	425
25	1425	475
25	1425	525
25	1425	575
25	1425	625
25	1425	675
25	1425	725
25	1425	775
25	1425	825
25	1425	875
25	1425	925
25	1425	975
25	1475	25
25	1475	75
25	1475	125
25	1475	175
25	1475	225
25	1475	275
25	1475	325
25	1475	375
25	1475	425
25	1475	475
25	1475	525
25	1475	575
25	1475	625
25	1475	675
25	1475	725
25	1475	775
25	1475	825
25	1475	875
25	1475	925
25	1475	975
25	1525	25
25	1525	75
25	1525	125
25	1525	175
25	1525	225
25	1525	275
25	1525	325
25	1525	375
25	1525	425
25	1525	475
25	1525	525
25	1525	575
25	1525	625
25	1525	675
25	1525	725
25	1525	775
25	1525	825
25	1525	875
25	1525	925
25	1525	975
25	1575	25
25	1575	75
25	1575	125
25	1575	175
25	1575	225
25	1575	275
25	1575	325
25	1575	375
25	1575	425
25	1575	475
25	1575	525
25	1575	575
25	1575	625
25	1575	675
25	1575	725
25	1575	775
25	1575	825
25	1575	875
25	1575	925
25	1575	975
25	1625	25
25	1625	75
25	1625	125
25	1625	175
25	1625	225
25	1625	275
25	1625	325
25	1625	375
25	1625	425
25	1625	475
25	1625	525
25	1625	575
25	1625	625
25	1625	675
25	1625	725
25	1625	775
25	1625	825
25	1625	875
25	1625	925
25	1625	975
25	1675	25
25	1675	75
25	1675	125
25	1675	175
25	1675	225
25	1675	275
25	1675	325
25	1675	375
25	1675	425
25	1675	475
25	1675	525
25	1675	575
25	1675	625
25	1675	675
25	1675	725
25	1675	775
25	1675	825
25	1675	875
25	1675	925
25	1675	975
25	1725	25
25	1725	75
25	1725	125
25	1725	175
25	1725	225
25	1725	275
25	1725	325
25	1725	375
25	1725	425
25	1725	475
25	1725	525
25	1725	575
25	1725	625
25	1725	675
25	1725	725
25	1725	775
25	1725	825
25	1725	875
25	1725	925
25	1725	975
25	1775	25
25	1775	75
25	1775	125
25	1775	175
25	1775	225
25	1775	275
25	1775	325
25	1775	375
25	1775	425
25	1775	475
25	1775	525
25	1775	575
25	1775	625
25	1775	675
25	1775	725
25	1775	775
25	1775	825
25	1775	875
25	1775	925
25	1775	975
25	1825	25
25	1825	75
25	1825	125
25	1825	175
25	1825	225
25	1825	275
25	1825	325
25	1825	375
25	1825	425
25	1825	475
25	1825	525
25	1825	575
25	1825	625
25	1825	675
25	1825	725
25	1825	775
25	1825	825
25	1825	875
25	1825	925
25	1825	975
25	1875	25
25	1875	75
25	1875	125
25	1875	175
25	1875	225
25	1875	275
25	1875	325
25	1875	375
25	1875	425
25	1875	475
25	1875	525
25	1875	575
25	1875	625
25	1875	675
25	1875	725
25	1875	775
25	1875	825
25	1875	875
25	1875	925
25	1875	975
25	1925	25
25	1925	75
25	1925	125
25	1925	175
25	1925	225
25	1925	275
25	1925	325
25	1925	375
25	1925	425
25	1925	475
25	1925	525
25	1925	575
25	1925	625
25	1925	675
25	1925	725
25	1925	775
25	1925	825
25	1925	875
25	1925	925
25	1925	975
25	1975	25
25	1975	75
25	1975	125
25	1975	175
25	1975	225
25	1975	275
25	1975	325
25	1975	375
25	1975	425
25	1975	475
25	1975	525
25	1975	575
25	1975	625
25	1975	675
25	1975	725
25	1975	775
25	1975	825
25	1975	875
25	1975	925
25	1975	975
75	25	25
75	25	75
75	25	125
75	25	175
75	25	225
75	25	275
75	25	325
75	25	375
75	25	425
75	25	475
75	25	525
75	25	575
75	25	625
75	25	675
75	25	725
75	25	775
75	25	825
75	25	875
75	25	925
75	25	975
75	75	25
75	75	75
75	75	125
75	75	175
75	75	225
75	75	275
75	75	325
75	75	375
75	75	425
75	75	475
75	75	525
75	75	575
75	75	625
75	75	675
75	75	725
75	75	775
75	75	825
75	75	875
75	75	925
75	75	975
75	125	25
75	125	75
75	125	125
75	125	175
75	125	225
75	125	275
75	125	325
75	125	375
75	125	425
75	125	475
75	125	525
75	125	575
75	125	625
75	125	675
75	125	725
75	125	775
75	125	825
75	125	875
75	125	925
75	125	975
75	175	25
75	175	75
75	175	125
75	175	175
75	175	225
75	175	275
75	175	325
75	175	375
75	175	425
75	175	475
75	175	525
75	175	575
75	175	625
75	175	675
75	175	725
75	175	775
[...]
CELL_DATA	32000
SCALARS model double 1
LOOKUP_TABLE table0
0.901902
-2.9981
6.54777
-7.30654
-7.05609
-6.08316
-5.14873
-4.22445
-3.36128
-2.60004
-1.95125
-1.40809
-0.957866
-0.587288
-0.284292
-0.038397
0.159398
0.316805
0.440131
0.53671
1.02451
-2.43794
6.79497
-6.80792
-6.73683
-5.82393
-4.97211
-4.11329
-3.29471
-2.55962
-1.92348
-1.38422
-0.932623
-0.557826
-0.249395
0.00206394
0.204869
0.366356
0.492622
0.59126
0.917744
-2.06262
7.0066
-6.15369
-6.26653
-5.44486
-4.71293
-3.93837
-3.17706
-2.47715
-1.85752
-1.32099
-0.863816
-0.479794
-0.161754
0.0977965
0.306314
0.47095
0.597892
0.695672
0.742993
-1.72673
7.16003
-5.49154
-5.88721
-5.17424
-4.48188
-3.75501
-3.03817
-2.36385
-1.75079
-1.20898
-0.741865
-0.348022
-0.0227219
0.240693
0.44975
0.612101
0.734428
0.826629
0.843784
-1.02904
7.15
-4.82894
-5.87139
-5.11424
-4.34281
-3.61095
-2.90168
-2.22653
-1.60521
-1.05274
-0.576369
-0.176569
0.150847
0.412784
0.617391
0.773054
0.886987
0.97053
0.763772
-0.560877
6.72284
-4.37964
-6.26355
-5.26014
-4.33926
-3.53869
-2.7876
-2.08231
-1.43863
-0.870486
-0.38461
0.019095
0.34563
0.602866
0.799935
0.946131
1.04925
1.12215
0.485786
-0.594908
6.08572
-4.4411
-6.84957
-5.5932
-4.48484
-3.55402
-2.71543
-1.95192
-1.27008
-0.678257
-0.179672
0.228362
0.552956
0.803755
0.991363
1.12624
1.2169
1.27779
0.547185
-0.209976
5.90112
-4.75238
-7.46433
-6.07715
-4.75932
-3.65589
-2.69431
-1.84753
-1.11165
-0.487178
0.0284654
0.442344
0.764944
1.0085
1.18557
1.30807
1.38532
1.43344
0.607876
0.31673
6.06021
-4.857
-8.09103
-6.65456
-5.1235
-3.82692
-2.71981
-1.77182
-0.969862
-0.305573
0.230885
0.652263
0.973363
1.20962
1.37591
1.48578
1.54947
1.58477
0.447856
0.472812
6.0012
-4.73074
-8.72574
-7.26396
-5.53129
-4.03931
-2.7789
-1.722
-0.84819
-0.140346
0.419163
0.849342
1.16976
1.39934
1.55544
1.6533
1.70412
1.72727
0.396835
0.88876
5.7132
-4.57546
-9.3156
-7.84785
-5.93737
-4.26343
-2.85643
-1.69351
-0.748865
0.00243367
0.585398
1.02514
1.34591
1.57006
1.71736
1.80467
1.84414
1.85655
0.365145
1.45844
5.35013
-4.53392
-9.82366
-8.3629
-6.30469
-4.47438
-2.9392
-1.6821
-0.67359
0.117541
0.722608
1.17208
1.49436
1.71486
1.85546
1.93448
1.96486
1.96861
0.226119
1.55174
5.04621
-4.65373
-10.2561
-8.7845
-6.60721
-4.65359
-3.01671
-1.68388
-0.623197
0.201164
0.825383
1.28413
1.60909
1.82807
1.96464
2.03821
2.06238
2.06008
-0.0165474
1.23316
4.95313
-4.90689
-10.6185
-9.09444
-6.82425
-4.78528
-3.0789
-1.69384
-0.596591
0.251765
0.890635
1.35746
1.68607
1.90579
2.04125
2.11261
2.13384
2.12846
-0.0579059
1.11375
5.07077
-5.24607
-10.8873
-9.26549
-6.93227
-4.85144
-3.11333
-1.70438
-0.58984
0.270713
0.918109
1.39088
1.72362
1.94616
2.08346
2.15589
2.17759
2.17227
0.0819482
1.0256
5.24892
-5.62833
-11.0085
-9.25574
-6.90211
-4.83098
-3.10511
-1.7054
-0.596349
0.262201
0.910382
1.38589
1.72252
1.94948
2.09124
2.16787
2.1933
2.19108
0.0457705
0.463283
5.47398
-5.95071
-10.8976
-9.0189
-6.70731
-4.70574
-3.04096
-1.68699
-0.608482
0.232247
0.872242
1.34628
1.68576
1.91806
2.06635
2.14981
2.18189
2.18554
0.106552
-0.0135017
6.03803
-6.05785
-10.4819
-8.53667
-6.34272
-4.47181
-2.91619
-1.64351
-0.620038
0.187134
0.809648
1.27743
1.61799
1.85579
2.01195
2.10425
2.14535
2.15716
0.327204
-0.0249111
7.0193
-5.93816
-9.79247
-7.85597
-5.84108
-4.14827
-2.7396
-1.5766
-0.628237
0.131977
0.728623
1.18539
1.5248
1.7676
1.93224
2.03468
2.08646
2.1082
0.707038
0.0996413
8.01316
-5.80615
-8.98897
-7.08573
-5.26867
-3.77438
-2.53209
-1.49487
-0.634079
0.0700141
0.634441
1.07611
1.41207
1.65887
1.83194
1.94508
2.00856
2.04138
0.660081
-0.712619
8.43387
-5.88299
-8.24357
-6.33751
-4.69657
-3.39459
-2.31885
-1.41025
-0.641032
0.0027546
0.531239
0.954883
1.28532
1.53487
1.71578
1.83959
1.91515
1.95962
0.469814
-1.88884
8.43161
-6.0932
-7.60061
-5.66281
-4.16984
-3.04181
-2.12052
-1.33363
-0.65316
-0.069468
0.421939
0.825944
1.14929
1.40031
1.58818
1.72215
1.80963
1.86586
0.626011
-2.43034
8.47271
-6.19432
-6.9885
-5.05091
-3.70084
-2.73154
-1.94924
-1.27266
-0.674037
-0.147079
0.308269
0.692322
1.00764
1.25904
1.45286
1.59621
1.69511
1.7628
0.743432
-2.80726
8.58435
-6.05637
-6.33139
-4.47756
-3.2879
-2.46911
-1.81152
-1.23265
-0.706897
-0.231217
0.190805
0.555796
0.862893
1.11392
1.31277
1.46463
1.57422
1.65282
0.94648
-2.91192
8.71499
-5.68574
-5.62456
-3.9494
-2.93807
-2.26114
-1.71357
-1.21871
-0.755298
-0.323791
0.069079
0.417012
0.716454
0.96684
1.17004
1.32957
1.44905
1.53792
0.992024
-2.75641
8.56728
-5.24634
-4.95504
-3.51101
-2.67327
-2.11994
-1.66359
-1.2366
-0.823155
-0.427212
-0.0580839
0.275775
0.568863
0.818846
1.02602
1.19258
1.32121
1.41966
0.740757
-2.60441
7.89777
-4.92825
-4.43294
-3.20845
-2.51472
-2.05717
-1.66871
-1.29103
-0.913688
-0.543664
-0.19203
0.131455
0.420096
0.670393
0.881533
1.0547
1.19189
1.29929
0.395303
-2.73632
6.98381
-4.71259
-4.0838
-3.04397
-2.46228
-2.07335
-1.72964
-1.38287
-1.02798
-0.674268
-0.333714
-0.016587
0.269894
0.521599
0.737015
0.916623
1.06194
1.17777
0.295212
-2.76141
6.32665
-4.42773
-3.8452
-2.97463
-2.49101
-2.15421
-1.83831
-1.50804
-1.16439
-0.818712
-0.483396
-0.168718
0.118033
0.372483
0.592744
0.778854
0.932028
1.05591
0.553181
-2.01881
6.04527
-4.08624
-3.65929
-2.95253
-2.56691
-2.27735
-1.9813
-1.6593
-1.31949
-0.97566
-0.640734
-0.324949
-0.0355169
0.223152
0.449012
0.64186
0.802784
0.934411
0.5649
-1.26587
5.78035
-3.90491
-3.50541
-2.95386
-2.66577
-2.42447
-2.14719
-1.83039
-1.49018
-1.14372
-0.805142
-0.484995
-0.190511
0.0739288
0.306261
0.506206
0.674865
0.814025
0.287329
-0.870165
5.30056
-3.81005
-3.3737
-2.98188
-2.78625
-2.59247
-2.33367
-2.01993
-1.67563
-1.32231
-0.9761
-0.648322
-0.346364
-0.0745405
0.165198
0.372649
0.549066
0.695565
0.47109
0.136456
4.65222
-3.40861
-3.30822
-3.07131
-2.95602
-2.79804
-2.55008
-2.23257
-1.87769
-1.51169
-1.15307
-0.814019
-0.502028
-0.221178
0.0268815
0.24221
0.426368
0.579974
0.548091
1.22559
3.55507
-2.70878
-3.3613
-3.28168
-3.2219
-3.0713
-2.81296
-2.47618
-2.09915
-1.71197
-1.33489
-0.980461
-0.655791
-0.364361
-0.107211
0.116219
0.307967
0.468337
0.319858
1.70625
2.08895
-2.30757
-3.41553
-3.64204
-3.62006
-3.43917
-3.13617
-2.75585
-2.34037
-1.92131
-1.51893
-1.1449
-0.80512
-0.501872
-0.235182
-0.00370671
0.195249
0.361861
0.348904
2.05788
1.08672
-2.72379
-3.47279
-4.08076
-4.13712
-3.90432
-3.52058
-3.06784
-2.59555
-2.13382
-1.70005
-1.30313
-0.946671
-0.631065
-0.354921
-0.115861
0.0896207
0.261736
0.392847
2.43125
0.733302
-3.64946
-3.96606
-4.56053
-4.69622
-4.42017
-3.94202
-3.39597
-2.85084
-2.33762
-1.86879
-1.4482
-1.07558
-0.748672
-0.464276
-0.218828
-0.00796786
0.168636
0.582198
2.67872
0.528201
-4.31196
-4.84941
-5.2663
-5.28165
-4.91854
-4.34518
-3.70761
-3.08655
-2.51759
-2.01153
-1.56773
-1.18132
-0.846363
-0.557151
-0.3085
-0.0950303
0.0838215
0.340332
1.88292
-0.184295
-4.76315
-5.52107
-5.92992
-5.88253
-5.39673
-4.70654
-3.97606
-3.287
-2.66886
-2.12754
-1.65947
-1.25753
-0.913707
-0.620301
-0.370422
-0.157316
0.0203931
0.0817428
1.26745
-0.626384
-4.99728
-5.77921
-6.12045
-6.00494
-5.51245
-4.81169
-4.06227
-3.35266
-2.71856
-2.16698
-1.69263
-1.28651
-0.939447
-0.643279
-0.391026
-0.175968
0.00319817
0.873599
-2.60331
6.7782
-6.65769
-6.55776
-5.60687
-4.75035
-3.90569
-3.11179
-2.40445
-1.79434
-1.27746
-0.844389
-0.484733
-0.18872
0.0524463
0.246609
0.40075
0.520677
0.613976
0.960063
-2.18213
6.87915
-6.22622
-6.28014
-5.38862
-4.60522
-3.81857
-3.064
-2.37817
-1.77641
-1.25962
-0.822017
-0.455607
-0.152195
0.0960007
0.296214
0.455117
0.578364
0.673894
0.904246
-1.72809
6.99741
-5.60596
-5.88191
-5.08185
-4.4005
-3.68924
-2.98333
-2.32309
-1.72871
-1.20684
-0.757356
-0.376869
-0.0602716
0.198502
0.406009
0.56892
0.693138
0.787753
0.859328
-1.2351
7.08298
-4.9534
-5.58366
-4.89273
-4.24421
-3.56956
-2.89342
-2.24365
-1.64241
-1.1044
-0.636737
-0.240521
0.0873048
0.352372
0.561678
0.722712
0.842113
0.930627
0.775534
-0.698461
6.92505
-4.32368
-5.62788
-4.92074
-4.19076
-3.49528
-2.80768
-2.13876
-1.51382
-0.953281
-0.467852
-0.0599789
0.273468
0.538923
0.744464
0.898684
1.00902
1.08797
0.665473
-0.367487
6.39301
-3.88627
-6.05309
-5.14878
-4.26853
-3.48789
-2.73833
-2.02041
-1.35773
-0.770122
-0.267381
0.149321
0.484628
0.746539
0.944609
1.08871
1.18713
1.25419
0.473117
-0.350296
5.75246
-3.89617
-6.64457
-5.54536
-4.48211
-3.55664
-2.70053
-1.90662
-1.1916
-0.570164
-0.0480998
0.376759
0.711902
0.967721
1.15573
1.28733
1.37177
1.42526
0.388101
-0.0647613
5.55056
-4.14476
-7.2472
-6.07636
-4.80956
-3.6982
-2.70164
-1.80841
-1.02695
-0.36441
0.179785
0.612997
0.946838
1.1949
1.37111
1.48866
1.55781
1.59674
0.54491
0.515061
5.6631
-4.24021
-7.86699
-6.69272
-5.21328
-3.89502
-2.73693
-1.72853
-0.870794
-0.162037
0.406309
0.848136
1.1801
1.41957
1.58319
1.68606
1.73955
1.76371
0.318948
0.473895
5.43522
-4.18056
-8.50934
-7.33303
-5.64642
-4.11906
-2.79391
-1.66545
-0.728344
0.0281335
0.621129
1.07161
1.40165
1.63258
1.78386
1.87251
1.91094
1.92103
0.169345
0.557505
4.95454
-4.10208
-9.09361
-7.92657
-6.05896
-4.34013
-2.85894
-1.61716
-0.604735
0.197148
0.813698
1.27264
1.60127
1.82468
1.96497
2.04095
2.06602
2.06361
0.323917
1.20271
4.62171
-4.04111
-9.54201
-8.41551
-6.41047
-4.53463
-2.92209
-1.58331
-0.50557
0.336221
0.973948
1.44109
1.7694
1.98724
2.11896
2.18489
2.19926
2.1868
0.30474
1.5601
4.5461
-4.03018
-9.85948
-8.77844
-6.6799
-4.68956
-2.97834
-1.56509
-0.436143
0.437774
1.09337
1.56842
1.89803
2.11304
2.2395
2.29887
2.30601
2.28665
0.223326
1.52478
4.68438
-4.13156
-10.1006
-9.02242
-6.86084
-4.79854
-3.02463
-1.56294
-0.39962
0.496923
1.16627
1.64876
1.98155
2.19694
2.32201
2.37891
2.38287
2.36025
0.167588
1.37318
4.85003
-4.39651
-10.2999
-9.15131
-6.94607
-4.85331
-3.05492
-1.57363
-0.395182
0.512796
1.19074
1.67971
2.01738
2.23641
2.36414
2.42286
2.42792
2.40587
0.142772
1.11357
4.93987
-4.79792
-10.4266
-9.14
-6.9159
-4.83842
-3.05771
-1.58906
-0.417359
0.488959
1.16902
1.66258
2.00622
2.23174
2.36586
2.43051
2.44081
2.42311
-0.0303739
0.482241
5.06433
-5.19685
-10.3842
-8.93897
-6.74295
-4.73517
-3.01893
-1.59824
-0.457311
0.432607
1.10696
1.60211
1.95182
2.18583
2.32941
2.40352
2.42276
2.41281
0.0642987
0.0761955
5.55229
-5.4117
-10.0764
-8.51407
-6.41332
-4.5339
-2.92933
-1.5917
-0.505586
0.352757
1.0128
1.50549
1.86029
2.10376
2.25889
2.34515
2.37629
2.37692
0.334251
0.127366
6.42291
-5.42396
-9.51045
-7.89233
-5.94792
-4.24549
-2.79126
-1.56574
-0.554957
0.258215
0.895587
1.38126
1.73925
1.99204
2.15974
2.25984
2.30496
2.31826
0.478854
0.00152655
7.25957
-5.41773
-8.81558
-7.16409
-5.40256
-3.90173
-2.61942
-1.52364
-0.601843
0.15612
0.763868
1.23808
1.59676
1.85782
2.03806
2.15267
2.21291
2.24019
0.389824
-0.795805
7.69447
-5.55088
-8.13557
-6.43097
-4.84315
-3.54275
-2.43481
-1.47326
-0.6459
0.0514095
0.624769
1.08376
1.44045
1.70807
1.89998
2.02888
2.10452
2.14632
0.316947
-1.61935
7.892
-5.756
-7.51735
-5.75029
-4.31706
-3.20123
-2.25646
-1.4232
-0.688636
-0.0530425
0.483569
0.924642
1.27684
1.54902
1.75114
1.89339
1.98399
2.04018
0.592895
-1.88749
8.11433
-5.87255
-6.92113
-5.12796
-3.84374
-2.89516
-2.09692
-1.3804
-0.732338
-0.156137
0.34356
0.765231
1.11095
1.38568
1.59625
1.75049
1.85506
1.92502
0.801586
-2.21826
8.25832
-5.82616
-6.29584
-4.55159
-3.42697
-2.63234
-1.9637
-1.35034
-0.77993
-0.258392
0.206096
0.608144
0.946112
1.22167
1.43895
1.6036
1.72086
1.80363
0.837884
-2.61172
8.29654
-5.59708
-5.62988
-4.02537
-3.0735
-2.41984
-1.86363
-1.33869
-0.835274
-0.361786
0.0708374
0.454286
0.784068
1.05925
1.28171
1.45524
1.58382
1.67827
0.847954
-2.5763
8.15879
-5.26009
-4.98173
-3.5822
-2.80069
-2.26881
-1.80509
-1.35179
-0.902936
-0.469259
-0.0637514
0.303266
0.625302
0.899506
1.126
1.30709
1.44567
1.55066
0.720888
-2.26647
7.68055
-4.95852
-4.44497
-3.26062
-2.62606
-2.18973
-1.79534
-1.39506
-0.986996
-0.583809
-0.199687
0.153951
0.469437
0.742667
0.97252
1.16014
1.3076
1.42207
0.544072
-2.16296
7.03272
-4.70424
-4.05604
-3.06634
-2.54983
-2.18334
-1.83571
-1.47027
-1.08953
-0.707502
-0.338755
0.00502096
0.315687
0.588464
0.821431
1.01491
1.17035
1.29341
0.70039
-1.93788
6.60386
-4.38392
-3.77756
-2.96636
-2.55058
-2.23681
-1.91916
-1.57433
-1.20989
-0.840991
-0.482085
-0.144633
0.163224
0.436445
0.672659
0.871635
1.03443
1.16537
0.880211
-1.26697
6.40674
-4.05536
-3.57258
-2.92087
-2.59779
-2.3294
-2.03335
-1.70097
-1.34559
-0.983826
-0.630147
-0.295739
0.0114146
0.286229
0.526114
0.730513
0.900257
1.03851
0.765188
-0.64807
6.13561
-3.93232
-3.42617
-2.90738
-2.66834
-2.44359
-2.16755
-1.84463
-1.49426
-1.13535
-0.783061
-0.448651
-0.14005
0.137677
0.381873
0.591818
0.768271
0.913429
0.544121
-0.279217
5.60426
-3.92099
-3.32369
-2.92458
-2.75895
-2.57576
-2.3195
-2.00427
-1.65557
-1.29556
-0.940886
-0.603377
-0.291068
-0.00897049
0.240308
0.456048
0.639076
0.790799
0.578621
0.425449
4.78917
-3.62035
-3.2942
-2.99936
-2.89295
-2.74084
-2.49798
-2.18458
-1.83169
-1.46516
-1.10356
-0.759466
-0.440998
-0.152988
0.102191
0.323998
0.51348
0.671436
0.420219
1.12547
3.54056
-2.99901
-3.3538
-3.18126
-3.11194
-2.96651
-2.7187
-2.39334
-2.02567
-1.64465
-1.27036
-0.915697
-0.588492
-0.293056
-0.0312459
0.196804
0.392532
0.55632
0.281612
1.67516
2.15716
-2.60553
-3.35977
-3.48829
-3.44926
-3.27798
-2.99492
-2.63571
-2.23825
-1.83266
-1.43908
-1.06972
-0.731353
-0.427233
-0.158325
0.0759154
0.277495
0.446568
0.450589
2.35331
1.37041
-2.95796
-3.34795
-3.84375
-3.89156
-3.67879
-3.32789
-2.90838
-2.46414
-2.02384
-1.60511
-1.21778
-0.866594
-0.553155
-0.277153
-0.0371233
0.169659
0.343291
0.476074
2.74196
1.1398
-3.76093
-3.7756
-4.23595
-4.36461
-4.12498
-3.69558
-3.1963
-2.69006
-2.20662
-1.75924
-1.35314
-0.989594
-0.667783
-0.385785
-0.141075
0.0698293
0.247048
0.522557
2.93153
1.00077
-4.25716
-4.52577
-4.87001
-4.88013
-4.55831
-4.04706
-3.4694
-2.89764
-2.36631
-1.88764
-1.46297
-1.08929
-0.76234
-0.477801
-0.231636
-0.0194215
0.159108
0.393461
2.17457
0.417426
-4.53688
-5.00455
-5.40488
-5.42313
-5.0008
-4.37703
-3.7111
-3.07689
-2.50142
-1.99155
-1.54579
-1.15916
-0.825523
-0.538675
-0.292902
-0.0824107
0.0938713
0.0484803
1.73645
0.0697874
-4.69905
-5.20663
-5.55909
-5.50296
-5.08576
-4.46639
-3.78944
-3.138
-2.54805
-2.02882
-1.57748
-1.18723
-0.850777
-0.561473
-0.313549
-0.101279
0.0763145
0.69729
-2.13892
7.04752
-5.84146
-5.88847
-4.92637
-4.16302
-3.41693
-2.71464
-2.08284
-1.52814
-1.04853
-0.63949
-0.295638
-0.0110842
0.220445
0.405391
0.55011
0.660087
0.743801
0.634831
-1.97811
6.90932
-5.49697
-5.69896
-4.78704
-4.07545
-3.37674
-2.70423
-2.08389
-1.52816
-1.0407
-0.62077
-0.265291
0.030229
0.271243
0.463774
0.614058
0.727588
0.813414
0.685445
-1.52847
6.83042
-4.92473
-5.43908
-4.60298
-3.97091
-3.33605
-2.69353
-2.07798
-1.51092
-1.00297
-0.559124
-0.180692
0.134085
0.389405
0.591123
0.745958
0.86005
0.94406
0.791158
-0.808162
6.808
-4.27446
-5.2606
-4.54972
-3.95246
-3.33391
-2.69062
-2.05529
-1.45545
-0.910862
-0.433819
-0.0295479
0.302544
0.56718
0.771544
0.923907
1.03168
1.10775
0.719803
-0.250652
6.51402
-3.63672
-5.36358
-4.72341
-4.05114
-3.38246
-2.69014
-2.00037
-1.34792
-0.759281
-0.249776
0.175185
0.517596
0.784223
0.984368
1.1282
1.22448
1.28842
0.632269
0.0471346
5.89407
-3.12358
-5.79572
-5.08092
-4.26791
-3.4837
-2.69006
-1.91572
-1.19775
-0.56234
-0.0228901
0.417905
0.76503
1.02813
1.21903
1.34997
1.43107
1.47992
0.581566
0.212771
5.27967
-2.95868
-6.34823
-5.57003
-4.59161
-3.63468
-2.69737
-1.81452
-1.01975
-0.334047
0.234404
0.687793
1.03546
1.29074
1.46844
1.58307
1.64614
1.67766
0.418638
0.403554
5.01929
-3.05134
-6.88626
-6.16053
-4.99569
-3.82716
-2.71622
-1.70599
-0.824784
-0.0856024
0.511132
0.974411
1.3192
1.56327
1.72476
1.8206
1.8637
1.87647
0.45198
0.753391
4.95061
-3.10404
-7.44913
-6.81411
-5.44385
-4.04349
-2.74216
-1.59401
-0.621692
0.17154
0.794867
1.26544
1.60468
1.83522
1.97872
2.05453
2.07689
2.07052
0.292988
0.542005
4.4939
-3.0967
-8.04961
-7.46882
-5.88976
-4.25752
-2.76593
-1.48119
-0.420254
0.424013
1.07105
1.54658
1.87866
2.09481
2.22007
2.2761
2.27834
2.25358
0.00727587
0.188699
3.74655
-3.09327
-8.5764
-8.04109
-6.28186
-4.4429
-2.78024
-1.37272
-0.232728
0.65636
1.32348
1.80234
2.1271
2.3297
2.43824
2.47638
2.46059
2.41945
0.0107154
0.484565
3.30628
-3.0197
-8.90817
-8.46165
-6.5821
-4.58405
-2.78497
-1.27814
-0.0737194
0.852047
1.53569
2.01739
2.33634
2.52808
2.62321
2.64698
2.61669
2.56237
0.204842
0.999952
3.42845
-2.85154
-9.04452
-8.71836
-6.78261
-4.68163
-2.78806
-1.21008
0.0418043
0.995584
1.69284
2.17826
2.49455
2.67983
2.76644
2.78079
2.74077
2.67747
0.299828
1.25817
3.87523
-2.73208
-9.09735
-8.85447
-6.90093
-4.74699
-2.80036
-1.18003
0.101989
1.07534
1.78406
2.27514
2.59314
2.77756
2.86169
2.87259
2.82848
2.76113
0.163532
1.12057
4.20104
-2.84248
-9.17995
-8.91888
-6.95503
-4.78804
-2.82711
-1.19286
0.101784
1.08617
1.80432
2.30332
2.62786
2.81752
2.9057
2.91956
2.87741
2.81127
0.131596
0.836012
4.30772
-3.20196
-9.30246
-8.91321
-6.93933
-4.79753
-2.86172
-1.24335
0.0450382
1.03074
1.75539
2.26391
2.5993
2.79993
2.89843
2.92148
2.88722
2.82746
0.028448
0.28978
4.4048
-3.64845
-9.36114
-8.78494
-6.82378
-4.7539
-2.88694
-1.31716
-0.056276
0.919019
1.64543
2.16348
2.51268
2.72887
2.84298
2.88067
2.85959
2.8109
0.015681
-0.115212
4.80055
-3.98261
-9.2297
-8.4744
-6.57798
-4.63505
-2.8832
-1.39619
-0.185524
0.765865
1.48736
2.01295
2.37699
2.61159
2.74511
2.80162
2.79796
2.76419
0.144303
-0.226651
5.48529
-4.16202
-8.87214
-7.97248
-6.19985
-4.43475
-2.8388
-1.46509
-0.325925
0.587832
1.29642
1.82571
2.20362
2.4575
2.61246
2.69041
2.70708
2.69106
0.188695
-0.404425
6.21252
-4.29289
-8.36135
-7.33515
-5.72425
-4.1688
-2.7549
-1.51553
-0.46408
0.400206
1.0878
1.61574
2.0048
2.27698
2.45358
2.55398
2.59252
2.5959
0.272839
-0.678722
6.83348
-4.47054
-7.80287
-6.6479
-5.20646
-3.86756
-2.64292
-1.54628
-0.591396
0.215115
0.874682
1.39582
1.79216
2.08016
2.27706
2.39944
2.46004
2.48337
0.484576
-0.931489
7.31559
-4.69938
-7.25948
-5.97894
-4.69668
-3.56182
-2.51758
-1.56053
-0.703752
0.04078
0.667133
1.17639
1.57564
1.87601
2.0907
2.23341
2.31513
2.358
0.717234
-1.09486
7.65075
-4.927
-6.73326
-5.35763
-4.2249
-3.27316
-2.39143
-1.56332
-0.80057
-0.118496
0.471595
0.964849
1.36274
1.67164
1.90095
2.06154
2.16264
2.22386
0.711174
-1.5464
7.77605
-5.08164
-6.18776
-4.78434
-3.8032
-3.01385
-2.27403
-1.56057
-0.884159
-0.261994
0.290963
0.765408
1.15833
1.47204
1.71261
1.88824
2.00646
2.0844
0.742633
-2.03922
7.79457
-5.06824
-5.59088
-4.25788
-3.4391
-2.79332
-2.17445
-1.55954
-0.959265
-0.391964
0.125071
0.57944
0.964767
1.28014
1.52878
1.71659
1.84953
1.94226
0.924668
-1.91592
7.76917
-4.87754
-4.97199
-3.79898
-3.14612
-2.62296
-2.10278
-1.56858
-1.03218
-0.512624
-0.0284307
0.406123
0.782381
1.09705
1.3511
1.54849
1.6938
1.79941
0.987827
-1.39896
7.54444
-4.63189
-4.41817
-3.44235
-2.93933
-2.51332
-2.06784
-1.5952
-1.10912
-0.628798
-0.172985
0.243295
0.61011
0.922579
1.18002
1.38483
1.54045
1.65714
0.945496
-1.1924
7.13852
-4.40072
-3.98952
-3.2024
-2.82087
-2.46621
-2.07262
-1.64333
-1.19436
-0.744587
-0.312085
0.088293
0.44617
0.755758
1.01524
1.22582
1.39003
1.51626
0.902598
-1.14035
6.8121
-4.13716
-3.67885
-3.05808
-2.77313
-2.47059
-2.11192
-1.71192
-1.28939
-0.862629
-0.448595
-0.0614201
0.28861
0.595289
0.856065
1.07128
1.24279
1.37729
0.905937
-0.802489
6.5677
-3.91728
-3.4609
-2.97366
-2.76758
-2.50716
-2.17498
-1.79649
-1.39353
-0.984234
-0.584569
-0.20792
0.135703
0.439937
0.701775
0.920942
1.0988
1.24059
0.740755
-0.508587
6.19229
-3.91386
-3.31171
-2.92105
-2.77993
-2.55895
-2.25217
-1.89284
-1.50591
-1.1102
-0.721464
-0.352733
-0.013837
0.288786
0.551844
0.774639
0.958209
1.10652
0.55422
-0.238104
5.60734
-3.98361
-3.20656
-2.89086
-2.80417
-2.62192
-2.34171
-2.0008
-1.62724
-1.24162
-0.86041
-0.496827
-0.160725
0.141408
0.406125
0.632476
0.821325
0.975564
0.55489
0.319296
4.72882
-3.72675
-3.16695
-2.90519
-2.86024
-2.70982
-2.45225
-2.12548
-1.76041
-1.38004
-1.00217
-0.640517
-0.304985
-0.00201579
0.26496
0.494924
0.688725
0.848374
0.355457
0.906136
3.47761
-3.12258
-3.17973
-3.01042
-2.98616