# vtk DataFile Version 3.0
Gravity inversion using rectangular prisms
ASCII
DATASET UNSTRUCTURED_GRID

POINTS	2254	double
0	0	0
0	0	200
0	0	400
0	0	600
0	0	800
0	0	1000
0	200	0
0	200	200
0	200	400
0	200	600
0	200	800
0	200	1000
0	400	0
0	400	200
0	400	400
0	400	600
0	400	800
0	400	1000
0	600	0
0	600	200
0	600	400
0	600	600
0	600	800
0	600	1000
0	800	0
0	800	200
0	800	400
0	800	600
0	800	800
0	800	1000
0	1000	0
0	1000	200
0	1000	400
0	1000	600
0	1000	800
0	1000	1000
0	1200	0
0	1200	200
0	1200	400
0	1200	600
0	1200	800
0	1200	1000
0	1400	0
0	1400	200
0	1400	400
0	1400	600
0	1400	800
0	1400	1000
0	1600	0
0	1600	200
0	1600	400
0	1600	600
0	1600	800
0	1600	1000
0	1800	0
0	1800	200
0	1800	400
0	1800	600
0	1800	800
0	1800	1000
0	2000	0
0	2000	200
0	2000	400
0	2000	600
0	2000	800
0	2000	1000
200	0	0
200	0	200
200	0	400
200	0	600
200	0	800
200	0	1000
200	200	0
200	200	200
200	200	400
200	200	600
200	200	800
200	200	1000
200	400	0
200	400	200
200	400	400
200	400	600
200	400	800
200	400	1000
200	600	0
200	600	200
200	600	400
200	600	600
200	600	800
200	600	1000
200	800	0
200	800	200
200	800	400
200	800	600
200	800	800
200	800	1000
200	1000	0
200	1000	200
200	1000	400
200	1000	600
200	1000	800
200	1000	1000
200	1200	0
200	1200	200
200	1200	400
200	1200	600
200	1200	800
200	1200	1000
200	1400	0
200	1400	200
200	1400	400
200	1400	600
200	1400	800
200	1400	1000
200	1600	0
200	1600	200
200	1600	400
200	1600	600
200	1600	800
200	1600	1000
200	1800	0
200	1800	200
200	1800	400
200	1800	600
200	1800	800
200	1800	1000
200	2000	0
200	2000	200
200	2000	400
200	2000	600
200	2000	800
200	2000	1000
400	0	0
400	0	200
400	0	400
400	0	600
400	0	800
400	0	1000
400	200	0
400	200	200
400	200	400
400	200	600
400	200	800
400	200	1000
400	400	0
400	400	200
400	400	300
400	400	400
400	400	600
400	400	800
400	400	1000
400	500	200
400	500	300
400	500	400
400	600	0
400	600	200
400	600	300
400	600	400
400	600	600
400	600	800
400	600	1000
400	700	200
400	700	300
400	700	400
400	800	0
400	800	200
400	800	300
400	800	400
400	800	600
400	800	800
400	800	1000
400	900	200
400	900	300
400	900	400
400	1000	0
400	1000	200
400	1000	300
400	1000	400
400	1000	600
400	1000	800
400	1000	1000
400	1200	0
400	1200	200
400	1200	400
400	1200	600
400	1200	800
400	1200	1000
400	1400	0
400	1400	200
400	1400	400
400	1400	600
400	1400	800
400	1400	1000
400	1600	0
400	1600	200
400	1600	400
400	1600	600
400	1600	800
400	1600	1000
400	1800	0
400	1800	200
400	1800	400
400	1800	600
400	1800	800
400	1800	1000
400	2000	0
400	2000	200
400	2000	400
400	2000	600
400	2000	800
400	2000	1000
500	400	200
500	400	300
500	400	400
500	500	200
500	500	300
500	500	400
500	600	200
500	600	300
500	600	400
500	700	200
500	700	300
500	700	400
500	800	200
500	800	300
500	800	400
500	900	200
500	900	300
500	900	400
500	1000	200
500	1000	300
500	1000	400
600	0	0
600	0	200
600	0	400
600	0	600
600	0	800
600	0	1000
600	200	0
600	200	200
600	200	300
600	200	400
600	200	600
600	200	800
600	200	1000
600	300	200
600	300	300
600	300	400
600	400	0
600	400	100
600	400	200
600	400	300
600	400	400
600	400	500
600	400	600
600	400	800
600	400	1000
600	500	0
600	500	100
600	500	200
600	500	300
600	500	400
600	500	500
600	500	600
600	600	0
600	600	100
600	600	200
600	600	300
600	600	400
600	600	500
600	600	600
600	600	800
600	600	1000
600	700	0
600	700	100
600	700	200
600	700	300
600	700	400
600	700	500
600	700	600
600	800	0
600	800	100
600	800	200
600	800	300
600	800	400
600	800	500
600	800	600
600	800	800
600	800	1000
600	900	0
600	900	100
600	900	200
600	900	300
600	900	400
600	900	500
600	900	600
600	1000	0
600	1000	100
600	1000	200
600	1000	300
600	1000	400
600	1000	500
600	1000	600
600	1000	800
600	1000	1000
600	1100	200
600	1100	300
600	1100	400
600	1200	0
600	1200	200
600	1200	300
600	1200	400
600	1200	500
600	1200	600
600	1200	800
600	1200	1000
600	1300	200
600	1300	300
600	1300	400
600	1300	500
600	1300	600
600	1400	0
600	1400	200
600	1400	300
600	1400	400
600	1400	500
600	1400	600
600	1400	800
600	1400	1000
600	1500	200
600	1500	300
600	1500	400
600	1600	0
600	1600	200
600	1600	300
600	1600	400
600	1600	600
600	1600	800
600	1600	1000
600	1800	0
600	1800	200
600	1800	400
600	1800	600
600	1800	800
600	1800	1000
600	2000	0
600	2000	200
600	2000	400
600	2000	600
600	2000	800
600	2000	1000
700	200	200
700	200	300
700	200	400
700	300	200
700	300	300
700	300	400
700	400	0
700	400	100
700	400	200
700	400	300
700	400	400
700	400	500
700	400	600
700	500	0
700	500	100
700	500	200
700	500	300
700	500	400
700	500	500
700	500	600
700	600	0
700	600	100
700	600	200
700	600	300
700	600	400
700	600	500
700	600	600
700	700	0
700	700	100
700	700	200
700	700	300
700	700	400
700	700	500
700	700	600
700	800	0
700	800	100
700	800	200
700	800	300
700	800	400
700	800	500
700	800	600
700	900	0
700	900	100
700	900	200
700	900	300
700	900	400
700	900	500
700	900	600
700	1000	0
700	1000	100
700	1000	200
700	1000	300
700	1000	400
700	1000	500
700	1000	600
700	1100	200
700	1100	300
700	1100	400
700	1200	200
700	1200	300
700	1200	400
700	1200	500
700	1200	600
700	1300	200
700	1300	300
700	1300	400
700	1300	500
700	1300	600
700	1400	200
700	1400	300
700	1400	400
700	1400	500
700	1400	600
700	1500	200
700	1500	300
700	1500	400
700	1600	200
700	1600	300
700	1600	400
800	0	0
800	0	200
800	0	400
800	0	600
800	0	800
800	0	1000
800	200	0
800	200	200
800	200	300
800	200	400
800	200	600
800	200	800
800	200	1000
800	300	200
800	300	300
800	300	400
800	400	0
800	400	100
800	400	200
800	400	300
800	400	400
800	400	500
800	400	600
800	400	800
800	400	1000
800	500	0
800	500	100
800	500	200
800	500	300
800	500	400
800	500	500
800	500	600
800	600	0
800	600	100
800	600	200
800	600	250
800	600	300
800	600	400
800	600	500
800	600	600
800	600	800
800	600	1000
800	650	200
800	650	250
800	650	300
800	700	0
800	700	100
800	700	200
800	700	250
800	700	300
800	700	400
800	700	500
800	700	600
800	750	200
800	750	250
800	750	300
800	800	0
800	800	100
800	800	200
800	800	250
800	800	300
800	800	400
800	800	500
800	800	600
800	800	800
800	800	1000
800	900	0
800	900	100
800	900	200
800	900	300
800	900	400
800	900	500
800	900	600
800	1000	0
800	1000	100
800	1000	200
800	1000	300
800	1000	400
800	1000	500
800	1000	600
800	1000	800
800	1000	1000
800	1100	200
800	1100	300
800	1100	400
800	1200	0
800	1200	100
800	1200	200
800	1200	300
800	1200	400
800	1200	500
800	1200	600
800	1200	700
800	1200	800
800	1200	1000
800	1300	0
800	1300	100
800	1300	200
800	1300	300
800	1300	400
800	1300	500
800	1300	600
800	1300	700
800	1300	800
800	1400	0
800	1400	100
800	1400	200
800	1400	300
800	1400	400
800	1400	500
800	1400	600
800	1400	700
800	1400	800
800	1400	1000
800	1500	0
800	1500	100
800	1500	200
800	1500	250
800	1500	300
800	1500	400
800	1500	500
800	1500	600
800	1500	700
800	1500	800
800	1550	200
800	1550	250
800	1550	300
800	1600	0
800	1600	100
800	1600	200
800	1600	250
800	1600	300
800	1600	400
800	1600	500
800	1600	600
800	1600	700
800	1600	800
800	1600	1000
800	1700	200
800	1700	300
800	1700	400
800	1700	500
800	1700	600
800	1800	0
800	1800	200
800	1800	300
800	1800	400
800	1800	500
800	1800	600
800	1800	800
800	1800	1000
800	2000	0
800	2000	200
800	2000	400
800	2000	600
800	2000	800
800	2000	1000
850	600	200
850	600	250
850	600	300
850	650	200
850	650	250
850	650	300
850	700	200
850	700	250
850	700	300
850	750	200
850	750	250
850	750	300
850	800	200
850	800	250
850	800	300
850	1500	200
850	1500	250
850	1500	300
850	1550	200
850	1550	250
850	1550	300
850	1600	200
850	1600	250
850	1600	300
900	400	200
900	400	300
900	400	400
900	400	500
900	400	600
900	500	200
900	500	300
900	500	400
900	500	500
900	500	600
900	600	0
900	600	100
900	600	200
900	600	250
900	600	300
900	600	400
900	600	500
900	600	600
900	650	200
900	650	250
900	650	300
900	700	0
900	700	100
900	700	200
900	700	250
900	700	300
900	700	400
900	700	500
900	700	600
900	750	200
900	750	250
900	750	300
900	800	0
900	800	100
900	800	200
900	800	250
900	800	300
900	800	400
900	800	500
900	800	600
900	900	200
900	900	300
900	900	400
900	900	500
900	900	600
900	1000	200
900	1000	300
900	1000	400
900	1000	500
900	1000	600
900	1100	200
900	1100	300
900	1100	400
900	1200	0
900	1200	100
900	1200	200
900	1200	300
900	1200	400
900	1200	500
900	1200	600
900	1200	700
900	1200	800
900	1300	0
900	1300	100
900	1300	200
900	1300	250
900	1300	300
900	1300	400
900	1300	500
900	1300	600
900	1300	700
900	1300	800
900	1350	200
900	1350	250
900	1350	300
900	1400	0
900	1400	100
900	1400	200
900	1400	250
900	1400	300
900	1400	400
900	1400	500
900	1400	600
900	1400	700
900	1400	800
900	1450	200
900	1450	250
900	1450	300
900	1500	0
900	1500	100
900	1500	200
900	1500	250
900	1500	300
900	1500	400
900	1500	500
900	1500	600
900	1500	700
900	1500	800
900	1550	200
900	1550	250
900	1550	300
900	1600	0
900	1600	100
900	1600	200
900	1600	250
900	1600	300
900	1600	400
900	1600	500
900	1600	600
900	1600	700
900	1600	800
900	1700	200
900	1700	300
900	1700	400
900	1700	500
900	1700	600
900	1800	200
900	1800	300
900	1800	400
900	1800	500
900	1800	600
950	1300	200
950	1300	250
950	1300	300
950	1350	200
950	1350	250
950	1350	300
950	1400	200
950	1400	250
950	1400	300
950	1450	200
950	1450	250
950	1450	300
950	1500	200
950	1500	250
950	1500	300
1000	0	0
1000	0	200
1000	0	400
1000	0	600
1000	0	800
1000	0	1000
1000	200	0
1000	200	200
1000	200	400
1000	200	600
1000	200	800
1000	200	1000
1000	400	0
1000	400	200
1000	400	300
1000	400	400
1000	400	500
1000	400	600
1000	400	800
1000	400	1000
1000	500	200
1000	500	300
1000	500	400
1000	500	500
1000	500	600
1000	600	0
1000	600	100
1000	600	200
1000	600	250
1000	600	300
1000	600	400
1000	600	500
1000	600	600
1000	600	800
1000	600	1000
1000	650	200
1000	650	250
1000	650	300
1000	700	0
1000	700	100
1000	700	200
1000	700	250
1000	700	300
1000	700	400
1000	700	500
1000	700	600
1000	800	0
1000	800	100
1000	800	200
1000	800	300
1000	800	400
1000	800	500
1000	800	600
1000	800	800
1000	800	1000
1000	900	200
1000	900	300
1000	900	400
1000	900	500
1000	900	600
1000	1000	0
1000	1000	200
1000	1000	300
1000	1000	400
[...]
CELL_DATA	1459
SCALARS model double 1
LOOKUP_TABLE table0
0.169061
0.963736
-5.87901
-6.50604
-5.13077
0.449336
-0.163053
-3.45071
-4.546
-3.73749
0.656294
4.27124
-7.37094
-4.99686
-3.0528
1.21851
-3.79201
-13.606
-6.68622
-3.18173
0.196732
4.44432
-12.8282
-7.48184
-3.68437
-0.19922
4.68712
-9.30409
-7.18813
-4.20672
-0.10027
1.32128
-6.86026
-6.62426
-4.77394
-0.17587
4.21818
-4.33073
-6.71504
-5.86897
-0.176644
8.58992
-7.1534
-10.567
-8.43662
-0.0917132
7.00426
-21.5196
-17.7767
-11.5598
-0.233851
0.429599
-5.17723
-5.50638
-3.90113
0.697362
-2.57394
-4.71579
-2.06198
-1.21368
1.65083
-12.643
-3.82868
1.68987
1.53081
1.80707
-18.7704
-1.5512
3.61948
2.91874
1.2795
-11.8172
-4.80426
1.40604
2.22182
1.01852
-7.10596
-8.80634
-2.28291
0.394204
-0.0169749
0.484665
-8.91281
-4.68028
-1.37535
-0.506896
1.94761
-7.74471
-5.8592
-2.92668
0.164266
-7.69138
-7.91071
-7.19363
-4.63069
0.0111799
5.54465
-9.83992
-9.11355
-5.89564
-0.601294
9.87984
-9.44954
-5.22341
-2.55134
-0.380463
-3.69006
-0.505824
3.09804
2.14025
3.54097
-6.22636
-4.77474
-5.16021
-4.32948
-3.34298
-3.47175
-0.322479
-2.47487
24.7363
16.0184
7.95754
5.36261
64.2748
67.1239
63.9363
67.105
73.001
70.8364
72.9156
70.8833
50.2343
24.3313
11.5368
-0.13251
1.53755
3.21944
1.2789
2.81515
7.44973
5.36621
5.29637
4.4717
25.1445
18.0041
10.6412
-1.59397
-22.1528
-5.69384
6.49098
7.37787
-0.355932
-12.5592
-15.0549
-1.84961
4.29331
0.134971
-5.80779
-13.9736
-6.31251
1.78995
-0.406166
21.695
-8.34818
-4.52368
0.248334
0.759169
-13.8377
-4.94275
-1.52183
0.534953
0.604628
-12.8486
-15.362
-4.7466
-1.44902
0.105131
-11.3235
-11.9291
-11.0104
-11.2306
-10.5761
-11.8476
-12.0798
-11.4866
8.36334
7.78989
4.23535
1.9318
7.71471
18.7565
17.2823
5.08185
5.01504
24.8275
18.5775
124.941
127.534
132.204
130.792
125.078
128.029
134.761
132.042
71.469
71.5431
72.2523
72.0255
71.5631
71.6574
72.4661
72.1828
29.269
11.9551
37.2391
51.556
30.3569
50.6753
37.804
52.8295
30.9707
52.3541
304.977
306.013
305.135
306.138
306.273
307.089
306.34
307.225
123.83
123.602
123.865
123.614
124.179
123.833
124.223
123.844
43.5838
17.3753
16.6604
14.6239
-1.12419
6.59844
28.1821
16.9784
-6.16648
5.96132
143.375
141.838
136.616
138.648
145.949
143.072
137.294
139.24
73.1771
72.8802
72.5229
72.5096
73.4016
73.0277
72.6008
72.5966
35.1591
17.7144
-6.17906
-19.9767
-20.9054
-21.5009
-22.0459
-20.7212
-21.1929
-22.2653
-22.3353
13.3087
21.6747
15.8537
-3.79877
-7.99364
-8.22129
-9.22175
-8.5497
-7.72023
-7.52418
-7.75767
-7.68404
8.3478
8.39959
8.31687
8.40569
8.85626
8.76701
8.83506
8.76414
8.70772
13.7619
-1.11827
-38.4722
-38.3965
-38.249
-38.2838
-37.0039
-37.5564
-34.932
-37.3351
9.64162
-5.41233
10.2156
1.72578
-25.2531
-21.9787
-2.20448
6.96397
1.43024
-4.60872
-6.76419
4.38762
7.20189
-0.0179831
7.61748
-7.90525
-2.39897
-0.855274
-0.485348
-8.14969
6.39411
5.21551
2.62296
4.03414
59.602
80.7733
154.364
136.227
26.1751
50.4506
103.358
93.6882
54.6862
54.8025
55.5321
55.2508
54.0826
54.4347
54.8737
54.8598
19.9737
7.9162
33.0728
32.4844
28.5044
32.927
8.41367
25.844
11.2733
27.9461
205.946
205.719
206.267
206.022
204.906
204.977
205.219
205.28
179.766
197.566
197.255
197.218
197.069
196.44
196.445
196.09
196.254
176.242
136.94
119.377
126.569
115.724
94.3273
93.8937
94.3553
93.8925
93.3181
93.2728
93.3338
93.2601
31.5669
13.071
0.283087
142.237
131.101
68.8207
91.0265
80.9083
88.2988
21.6213
59.9978
55.2373
54.8792
54.4936
54.5337
54.5194
54.4564
53.7421
54.0976
33.0696
17.4124
-8.77056
-22.2703
-21.1363
-21.1186
-20.8142
-24.634
-21.7057
-19.5567
-20.4508
51.8281
53.4806
22.8809
-0.854696
3.15207
-0.604751
1.3394
1.39202
2.81044
23.4126
-0.0856278
43.4232
98.077
101.571
101.571
101.915
101.916
175.921
176.167
176.735
176.797
176.898
176.89
177.728
177.528
202.545
112.113
112.438
101.568
101.568
101.915
101.915
198.128
112.976
98.1773
98.2353
98.1302
98.1993
98.2749
98.3366
98.2392
98.3041
27.3168
5.10588
1.90179
-1.29466
1.53031
13.7497
-0.0867068
-0.740824
-0.0886246
101.57
101.57
100.92
101.234
98.5879
99.0295
101.97
102.159
99.5816
99.9307
101.57
202.985
203.263
198.116
198.117
203.815
203.907
198.117
198.118
198.119
109.629
122.934
101.57
101.569
101.569
41.959
198.121
106.971
106.971
64.6531
23.7604
23.7007
23.6254
23.5902
23.8159
23.7513
23.6794
23.643
23.4312
1.30988
-30.7547
-9.43239
-54.8217
-42.8796
-7.36829
8.3354
-56.9214
-39.7167
-14.361
-15.0715
-14.6946
-15.192
-14.2606
-14.8917
-14.6773
-15.0851
11.6167
16.5255
2.58189
-36.109
-6.36778
13.4412
14.3172
0.273671
-10.3566
7.44105
0.394372
-1.02159
0.182313
-0.81996
-6.2471
-4.30788
-2.14297
-0.632931
-1.67963
0.206226
10.6338
-1.57599
-50.206
-50.9711
-115.986
-86.3071
-35.3403
-35.3553
-35.2645
-35.4022
-35.9245
-35.7861
-36.0124
-35.8827
-11.5968
-3.05869
-1.19713
-3.02504
-2.2563
2.32767
-3.24387
-21.3341
-6.32922
-8.83174
15.4276
15.1985
15.4329
15.2465
12.7072
13.2623
12.7492
13.3243
-3.56288
5.00534
-4.324
-151.499
-152.037
-151.629
-152.161
-153.337
-153.412
-153.426
-153.529
-117.392
-146.378
-146.693
-145.883
-146.512
-147.763
-147.946
-147.284
-147.758
-116.672
-51.7678
-52.2426
-51.7168
-52.2485
-52.8033
-52.8369
-52.7142
-52.8413
-12.4692
-0.581786
-5.04339
-8.78553
-3.30854
-30.7093
-1.51179
-106.072
-89.5952
-70.5292
-55.6216
-31.2361
-31.4115
-31.2658
-31.2997
-31.8356
-31.7905
-31.6741
-31.6141
4.16242
8.68426
-7.48154
-16.7619
10.057
50.6963
51.9818
-19.6963
0.870815
56.7925
56.2692
53.1977
53.7132
53.9696
54.1371
53.2908
53.721
53.9889
54.1213
40.4698
23.7029
9.37409
-30.4642
35.6821
-0.602779
-0.0941495
0.454255
-0.0932833
-0.98344
-0.0947929
0.167668
-0.0934157
17.7979
12.0855
45.0477
0.112356
-0.0939459
0.121717
-0.0936526
0.105918
-0.0948317
-0.0701207
-0.0939235
101.913
101.914
212.085
212.325
212.848
212.95
212.524
212.621
213.289
213.247
203.812
101.911
101.911
224.195
224.382
224.929
225.103
224.289
224.441
225.015
225.161
228.467
101.914
101.916
198.121
106.982
101.911
101.91
198.123
131.377
65.5266
35.7027
40.5872
-0.086576
8.70025
-0.0870895
38.9409
0.0674458
-0.0966503
-0.203119
-0.0969356
-0.0747579
-0.0948486
-0.288797
-0.0952017
4.8101
-0.0944814
204.33
204.284
198.119
198.119
204.259
204.339
198.121
198.121
198.121
155.228
172.022
198.125
198.124
177.705
177.757
177.023
177.335
177.744
177.9
177.068
177.479
197.076
198.121
130.684
130.685
115.531
198.121
140.523
140.521
126.306
47.1357
34.9491
-5.42573
42.9674
41.2642
-34.1697
-29.0422
75.6132
60.0968
-9.55647
-18.884
29.378
29.1624
28.8324
28.8403
29.4678
29.2076
28.6394
28.764
34.5296
25.0423
0.820803
-40.2378
13.6329
26.1678
19.7256
-0.29422
4.37176
12.9456
0.629386
-1.60379
-0.81305
17.2038
-11.919
-11.2708
-6.00562
-1.06211
-5.6579
-9.55309
-25.2066
-7.36429
-5.50714
-12.0916
-21.9823
-67.3454
-85.2163
-179.956
-180.171
-180.956
-181.095
-180.426
-180.575
-181.446
-181.512
-159.195
-78.0211
-91.8343
-187.044
-187.249
-188.034
-188.163
-186.869
-187.207
-187.86
-188.124
-168.864
-88.1506
-88.3089
-88.4449
-88.4849
-88.2419
-88.4136
-88.5994
-88.6262
-34.2702
-11.8873
0.243255
-183.692
-186.185
-185.989
-188.164
-186.869
-188.598
-189.307
-190.655
-1.07405
-151.881
-152.986
-149.018
-151.644
-155.053
-155.578
-152.837
-154.458
-8.78572
-164.442
-165.291
-166.998
-167.605
-162.909
-164.752
-165.596
-167.116
-17.6348
-136.453
-244.819
-218.752
-235.515
-223.755
-251.588
-234.699
-248.021
-243.838
-87.7517
-73.5968
-84.2516
-71.7023
-93.2343
-80.4983
-89.6974
-78.5425
-45.0525
-12.4808
-3.79673
-68.1863
-2.36627
-17.7839
-5.96107
-76.5889
-2.6544
-8.21136
-173.693
-182.402
-96.8224
-118.588
-189.936
-206.133
-103.314
-137.424
-61.7979
-50.5167
-40.5091
-36.317
-67.4627
-56.7966
-46.2705
-42.5599
-20.0925
-1.79713
-4.4825
-22.4028
-19.1295
54.4041
54.2375
-26.6516
-25.727
42.3295
49.273
63.4509
63.9055
64.0454
64.2714
63.1549
63.713
63.6188
64.0433
26.3862
17.0186
18.8795
16.5323
37.759
0.12853
-0.0936969
-0.212715
-0.0938545
0.187931
-0.0927073
-0.180644
-0.0938744
11.1503
14.2815
33.3618
0.173759
-0.0932725
-0.187404
-0.0935351
-0.0520219
-0.0927201
-0.216252
-0.0922455
101.91
101.91
226.157
226.331
226.829
226.917
226.125
226.302
226.863
226.93
237.044
101.91
101.91
228.256
228.468
229.019
229.111
227.969
228.267
228.767
228.927
226.539
101.91
101.911
198.124
131.064
101.909
101.906
198.125
99.8475
7.32443
-12.3099
7.84155
-12.5094
99.4198
-16.9264
99.4235
-17.1452
31.5584
37.4044
-0.0953088
12.7457
-0.0956182
27.6504
0.0267616
-0.0937955
-0.220145
-0.0934997
-0.212953
-0.0932142
-0.559837
-0.09399
5.18332
-0.0946316
198.185
198.077
198.122
198.122
204.288
204.252
198.124
198.124
198.124
170.154
197.008
204.305
204.259
198.126
198.126
204.261
204.214
198.127
198.126
198.126
146.402
171.915
198.125
130.869
130.871
113.241
198.127
100.207
100.207
99.9303
4.74962
-15.4956
4.55919
-14.4613
99.4647
-18.5386
99.4845
-17.3502
33.2733
-6.4383
74.439
64.2903
-6.91261
-16.2322
45.9088
66.9467
-27.1226
-17.0248
42.6685
24.7453
-3.5991
-8.9612
98.6218
99.1358
6.8995
0.999446
33.8027
24.7162
0.118309
-28.1947
1.54393
26.0902
18.8868
0.438703
-7.82182
4.151
-0.618085
-1.42324
0.473487
3.25226
-6.12789
-9.42543
-5.81408
-8.53768
-4.73537
-13.3385
-12.8938
-1.843
-3.11085
-4.72782
-7.67773
-62.6446
-69.1589
-146.71
-128.253
-18.1308
-40.9829
-80.9152
-85.8949
-57.6867
-28.732
-12.1483
-15.1194
-113.067
-6.70752
-89.383
-1.64845
-46.0205
-4.56567
-31.5957
-198.859
-184.142
-198.299
-197.041
-117.586
-122.62
-117.075
-133.222
-93.1469
-93.1931
-93.1598
-93.2387
-92.9465
-93.1231
-92.9103
-93.1483
-39.6856
-14.2892
-6.65251
-53.2062
-2.2919
-1.09606
-3.54907
-12.9218
-1.03971
26.1994
-154.709
-174.74
-85.6371
-121.021
-89.6603
-121.461
-51.4044
-87.0973
-67.1856
-62.1445
-51.5603
-51.1659
-57.4354
-57.462
-45.839
-48.429
-22.5346
-7.16957
-2.43385
-32.0594
-26.2709
17.2952
37.1099
-40.7092
-26.5225
-23.422
18.1363
10.2501
10.5759
10.6099
10.8913
10.1283
10.4702
10.3992
10.7939
8.95353
6.46783
2.49747
-8.56151
20.4762
-0.0912207
4.3988
-12.1247
1.35729
-0.0900829
101.909
101.91
203.215
203.347
204.073
204.017
198.129
198.128
198.128
198.128
198.128
101.083
101.646
102.307
102.6
96.9079
97.9393
98.1313
98.884
101.909
111.625
99.2009
101.908
101.908
198.135
112.256
101.907
111.825
112.25
112.228
9.95031
9.83506
9.9711
9.84042
9.74617
9.88557
9.7573
9.887
17.794
22.252
-0.0924386
-4.13452
-0.0920907
-2.37307
-0.0918559
-5.13715
-7.62225
203.832
203.863
198.127
198.127
198.127
198.128
198.128
198.127
198.125
101.811
100.095
101.811
100.09
26.1375
99.1331
198.135
112.485
112.485
112.46
112.485
112.38
111.653
112.197
8.17857
8.01518
8.26173
8.07074
7.96549
8.06365
8.05603
8.11791
20.403
-1.17644
0.696921
98.1352
-55.6861
-11.5851
-37.1552
99.9965
100.067
99.8232
99.9305
99.7867
99.9029
99.6257
99.7731
-63.0672
-11.5057
8.82688
8.68156
8.06092
8.13147
8.47034
8.40257
8.20654
8.17767
15.264
14.966
3.07078
-56.4207
-55.6081
-53.2519
-55.0079
-54.4634
-55.2099
-53.4999
-55.2547
-4.23649
11.824
11.2476
0.0645894
5.38437
0.911625
1.32004
0.708682
0.719697
-3.96023
3.29486
-1.75542
-2.09769
0.329073
8.25409
-7.67066
-10.3761
-6.49223
0.846021
-47.1075
-44.9492
-42.8578
-48.9485
-1.24711
-1.16325
2.04317
-3.46697
-16.7497
-16.6988
-9.04803
0.217972
-24.3492
-42.095
-4.37311
-32.2683
11.1013
-2.58279
35.5667
1.03402
-3.68992
-14.3439
-7.15731
-0.162002
-17.2989
-17.5056
-22.0649
-16.438
-13.3572
-16.4366
-15.9537
-16.7032
7.96566
-7.92346
-1.91346
-2.81526
-11.5688
-0.926219
-6.02838
1.64316
2.63767
-1.19435
-2.76203
-41.8533
-41.9456
-41.6608
-41.9314
-42.9041
-42.716
-42.819
-42.7488
99.4021
99.5939
99.852
99.992
99.2902
99.4925
99.7201
99.8818
-13.5376
97.8273
-46.839
-0.124207
-54.2768
-1.83548
9.65323
9.91925
9.76826
9.9371
9.50077
9.66755
9.46701
9.66388
-5.8006
3.45712
-0.867682
-8.72243
98.1507
-30.3115
99.9862
100.054
99.7855
99.8999
99.8293
99.9324
99.6393
99.7825
-56.5565
-3.70606
-45.9515
-1.22863
8.14767
8.21494
8.36901
8.32208
7.83411
7.95721
8.04931
8.04087
-2.0768
5.61067
-0.0825071
-23.8571
-21.5477
-21.0061
-22.076
-20.6021
-21.9378
-17.7354
-21.3157
-18.0516
-3.11668
3.58271
0.600876
6.89977
-14.612
-3.88961
1.73802
0.14655
-5.9299
6.34016
6.11723
3.67358
0.0170341
3.59319
9.40794
4.0792
1.48492
0.299616
-3.28482
2.09999
-2.03921
-2.22388
-0.448539
12.8952
-1.94704
-8.11465
-5.41659
-0.15165
1.84682
-5.73478
-12.215
-6.41997
-0.0700488
1.48634
-10.1207
-13.2788
-4.84745
0.815685
-7.8439
-15.7636
-10.5205
-1.76688
0.464286
-16.3627
-7.66874
-5.59065
0.0977909
-0.981164
15.0057
-12.357
-6.94911
-1.41009
0.154782
-12.7147
-22.2385
-10.7523
-3.47547
SCALARS m0 double 1
LOOKUP_TABLE table1
0
0
0
0
0
0
0
0
0
0
0
0
0
0
0
0
0
0
0
0
0
0
0
0
0
0
0
0
0
0
0
0
0
0
0
0
0
0
0
0
0
0
0
0
0
0
0
0
0
0
0
0
0
0
0
0
0
0
0
0
0
0
0
0
0
0
0
0
0
0
0
0
0
0
0
0
0
0
0
0
0
0
0
0
0
0
0
0
0
0
0
0
0
0
0
0
0
0
0
0
0
0
0
0
0
0
0
0
0
0
0
0
0
0
0
0
0
0
0
0
0
0
0
0
0
0
0
0
0
0
0
0
0
0
0
0
0
0
0
0
0
0
0
0
0
0
0
0
0
0
0
0
0
0
0
0
0
0
0
0
0
0
0
0
0
0
0
0
0
0
0
0
0
0
0
0
0
0
0
0
0
0
0
0
0
0
0
0
0
0
0
0
0
0
0
0
0
0
0
0
0
0
0
0
0
0
0
0
0
0
0
0
0
0
0
0
0
0
0
0
0
0
0
0
0
0
0
0
0
0
0
0
0
0
0
0
0
0
0
0
0
0
0
0
0
0
0
0
0
0
0
0
0
0
0
0
0
0
0
0
0
0
0
0
0
0
0
0
0
0
0
0
0
0
0
0
0
0
0
0
0
0
0
0
0
0
0
0
0
0
0
0
0
0
0
0
0
0
0
0
0
0
0
0
0
0
0
0
0
0
0
0
0
0
0
0
0
0
0
0
0
0
0
0
0
0
0
0
0
0
0
0
0
0
0
0
0
0
0
0
0
0
0
0
0
0
0
0
0
0
0
0
0
0
0
0
0
0
0
0
0
0
0
0
0
0
0
0
0
0
0
0
0
0
0
0
0
0
0
0
0
0
0
0
0
0
0
0
0
0
0
0
0
0
0
0
0
0
0
0
0
0
0
0
0
0
0
0
0
0
0
0
0
0
0
0
0
0
0
0
0
0
0
0
0
0
0
0
0
0
0
0
0
0
0
0
0
0
0
0
0
0
0
0
0
0
0
0
0
0
0
0
0
0
0
0
0
0
0
0
0
0
0
0
0
0
0
0
0
0
0
0
0
0
0
0
0
0
0
0
0
0
0
0
0
0
0
0
0
0
0
0
0
0
0
0
0
0
0
0
0
0
0
0
0
0
0
0
0
0
0
0
0
0
0
0
0
0
0
0
0
0
0
0
0
0
0
0
0
0
0
0
0
0
0
0
0
0
0
0
0
0
0
0
0
0
0
0
0
0
0
0
0
0
0
0
0
0
0
0
0
0
0
0
0
0
0
0
0
0
0
0
0
0
0
0
0
0
0
0
0
0
0
0
0
0
0
0
0
0
0
0
0
0
0
0
0
0
0
0
0
0
0
0
0
0
0
0
0
0
0
0
0
0
0
0
0
0
0
0
0
0
0
0
0
0
0
0
0
0
0
0
0
0
0
0
0
0
0
0
0
0
0
0
0
0
0
0
0
0
0
0
0
0
0
0
0
0
0
0
0
0
0
0
0
0
0
0
0
0
0
0
0
0
0
0
0
0
0
0
0
0
0
0
0
0
0
0
0
0
0
0
0
0
0
0
0
0
0
0
0
0
0
0
0
0
0
0
0
0
0
0
0
0
0
0
0
0
0
0
0
0
0
0
0
0
0
0
0
0
0
0
0
0
0
0
0
0
0
0
0
0
0
0
0
0
0
0
0
0
0
0
0
0
0
0
0
0
0
0
0
0
0
0
0
0
0
0
0
0
0
0
0
0
0
0
0
0
0
0
0
0
0
0
0
0
0
0
0
0
0
0
0
0
0
0
0
0
0
0
0
0
0
0
0
0
0
0
0
0
0
0
0
0
0
0
0
0
0
0
0
0
0
0
0
0
0
0
0
0
0
0
0
0
0
0
0
0
0
0
0
0
0
0
0
0
0
0
0
0
0
0
0
0
0
0
0
0
0
0
0
0
0
0
0
0
0
0
0
0
0
0
0
0
0
0
0
0
0
0
0
0
0
0
0
0
0
0
0
0
0
0
0
0
0
0
0
0
0
0
0
0
0
0
0
0
0
0
0
0
0
0
0
0
0
0
0
0
0
0
0
0
0
0
0
0
0
0
0
0
0
0
0
0
0
0
0
0
0
0
0
0
0
0
0
0
0
0
0
0
0
0
0
0
0
0
0
0
0
0
0
0
0
0
0
0
0
0
0
0
0
0
0
0
0
0
0
0
0
0
0
0
0
0
0
0
0
0
0
0
0
0
0
0
0
0
0
0
0
0
0
0
0
0
0
0
0
0
0
0
0
0
0
0
0
0
0
0
0
0
0
0
0
0
0
0
0
0
0
0
0
0
0
0
0
0
0
0
0
0
0
0
0
0
0
0
0
0
0
0
0
0
0
0
0
0
0
0
0
0
0
0
0
0
0
0
0
0
0
0
0
0
0
0
0
0
0
0
0
0
0
0
0
0
0
0
0
0
0
0
0
0
0
0
0
0
0
0
0
0
0
0
0
0
0
0
0
0
0
0
0
0
0
0
0
0
0
0
0
0
0
0
0
0
0
0
0
0
0
0
0
0
0
0
0
0
0
0
0
0
0
0
0
0
0
0
0
0
0
0
0
0
0
0
0
0
0
0
0
0
0
0
0
0
0
0
0
0
0
0
0
0
0
0
0
0
0
0
0
0
0
0
0
0
0
0
0
0
0
0
0
0
0
0
0
0
0
0
0
0
0
0
0
0
0
0
0
0
0
0
0
0
0
0
0
0
0
0
0
0
0
0
0
0
0
0
0
0
0
0
0
0
0
0
0
0
0
0
0
0
0
0
0
0
0
0
0
0
0
0
0
0
0
0
0
0
0
0
0
0
0
0
0
0
0
0
0
0
0
0
0
0
0
0
0
0
0
0
0
0
0
0
0
0
0
0
0
0
0
0
0
0
0
0
0
0
0
0
0
0
0
0
0
0
0
0
0
0
0
0
0
0
0
0
0
0
0
0
0
0
0
0
0
0
0
0
0
0
0
0
0
0
0
0
0
0
0
0
0
0
0
0
0
0
0
0
0
0
0
0
0
0
0
0
0
0
0
0
0
0
0
0
0
0
0
0
0
0
0
0
0
0
0
0
0
0
0
0
0
0
0
0
0
0
0
0
0
0
0
0
0
0
0
0
0
0
0
0
0
0
0
0
0
0
0
0
0
0
0
0
0
0
0
0
0
0
0
0
0
0
0
0
0
0
0
0
0
0
0
0
0
0
0
0
0
0
0
0
0
0
0
0
0
0
0
0
0
0
0
0
0
0
0
0
0
0
0
0
0
SCALARS m0s double 1
LOOKUP_TABLE table2
0
0
0
0
0
0
0
0
0
0
0
0
0
0
0
0
0
0
0
0
0
0
0
0
0
0
0
0
0
0
0
0
0
0
0
0
0
0
0
0
0
0
0
0
0
0
0
0
0
0
0
0
0
0
0
0
0
0
0
0
0
0
0
0
0
0
0
0
0
0
0
0
0
0
0
0
0
0
0
0
0
0
0
0
0
0
0
0
0
0
0
0
0
0
0
0
0
0
0
0
0
0
0
0
0
0
0
0
0
0
0
0
0
0
0
0
0
0
0
0
0
0
0
0
0
0
0
0
0
0
0
0
0
0
0
0
0
0
0
0
0
0
0
0
0
0
0
0
0
0
0
0
0
0
0
0
0
0
0
0
0
0
0
0
0
0
0
0
0
0
0
0
0
0
0
0
0
0
0
0
0
0
0
0
0
0
0
0
0
0
0
0
0
0
0
0
0
0
0
0
0
0
0
0
0
0
0
0
0
0
0
0
0
0
0
0
0
0
0
0
0
0
0
0
0
0
0
0
0
0
0
0
0
0
0
0
0
0
0
0
0
0
0
0
0
0
0
0
0
0
0
0
0
0
0
0
0
0
0
0
0
0
0
0
0
0
0
0
0
0
0
0
0
0
0
0
0
0
0
0
0
0
0
0
0
0
0
0
0
0
0
0
0
0
0
0
0
0
0
0
0
0
0
0
0
0
0
0
0
0
0
0
0
0
0
0
0
0
0
0
0
0
0
0
0
0
0
0
0
0
0
0
0
0
0
0
0
0
0
0
0
0
0
0
0
0
0
0
0
0
0
0
0
0
0
0
0
0
0
0
0
0
0
0
0
0
0
0
0
0
0
0
0
0
0
0
0
0
0
0
0
0
0
0
0
0
0
0
0
0
0
0
0
0
0
0
0
0
0
0
0
0
0
0
0
0
0
0
0
0
0
0
0
0
0
0
0
0
0
0
0
0
0
0
0
0
0
0
0
0
0
0
0
200
200
200
200
200
200
200
200
200
0
0
0
0
0
0
200
0
0
0
0
0
0
0
0
0
0
0
0
0
0
0
0
0
0
0
0
0
0
0
0
0
0
0
0
0
200
200
200
200
200
200
200
200
200
0
0
0
0
0
0
200
0
0
0
0
0
0
0
0
0
0
0
0
0
0
0
0
0
0
0
0
0
0
0
0
0
0
0
0
0
0
0
0
0
0
0
0
0
0
0
0
0
0
0
0
0
0
0
0
0
0
0
0
0
0
0
0
0
0
0
0
0
0
0
0
0
0
0
0
0
0
0
0
0
0
0
0
0
0
0
0
0
0
0
0
0
0
0
0
0
0
0
0
0
0
0
0
0
0
0
0
0
0
0
0
0
0
0
0
0
0
0
0
0
0
0
0
0
0
0
0
0
0
0
0
0
0
0
0
0
0
0
0
0
0
0
0
0
0
0
0
0
0
0
0
0
0
0
0
0
0
0
0
0
0
0
0
0
0
0
0
0
0
0
0
0
0
0
0
0
0
0
0
0
0
200
200
200
200
200
200
200
200
200
0
0
200
200
200
200
200
200
200
200
200
0
0
200
0
0
0
200
0
0
0
0
0
0
0
0
0
0
0
0
0
0
0
0
0
0
200
200
200
200
200
200
200
200
200
0
0
200
200
0
0
0
0
0
0
0
0
0
200
0
0
0
200
0
0
0
0
0
0
0
0
0
0
0
0
0
0
0
0
0
0
0
0
0
0
0
0
0
0
0
0
0
0
0
0
0
0
0
0
0
0
0
0
0
0
0
0
0
0
0
0
0
0
0
0
0
0
0
0
0
0
0
0
0
0
0
0
0
0
0
0
0
0
0
0
0
0
0
0
0
0
0
0
0
0
0
0
0
0
0
0
0
0
0
0
0
0
0
0
0
0
0
0
0
0
0
0
0
0
0
0
0
0
0
0
0
0
0
0
0
0
0
0
0
0
0
0
0
0
0
0
0
0
0
0
0
0
0
0
0
0
0
0
0
0
0
0
0
0
0
0
0
0
0
0
0
0
0
0
0
0
0
0
0
0
0
0
0
0
0
0
0
0
0
0
0
0
0
0
0
0
0
0
0
0
0
0
0
0
0
0
0
0
0
0
0
0
0
200
200
200
200
200
200
200
200
200
0
0
200
200
200
200
200
200
200
200
200
0
0
200
0
0
0
200
0
0
0
0
0
0
0
0
0
0
0
0
0
0
0
0
0
0
0
0
0
0
0
0
0
200
200
200
200
200
200
200
200
200
0
0
200
200
200
200
200
200
200
200
200
0
0
200
0
0
0
200
0
0
0
0
0
0
0
0
0
0
0
0
0
0
0
0
0
0
0
0
0
0
0
0
0
0
0
0
0
0
0
0
0
0
0
0
0
0
0
0
0
0
0
0
0
0
0
0
0
0
0
0
0
0
0
0
0
0
0
0
0
0
0
0
0
0
0
0
0
0
0
0
0
0
0
0
0
0
0
0
0
0
0
0
0
0
0
0
0
0
0
0
0
0
0
0
0
0
0
0
0
0
0
0
0
0
0
0
0
0
0
0
0
0
0
0
0
0
0
0
0
0
0
0
0
0
0
0
0
0
0
0
0
0
0
0
0
0
0
0
0
0
0
0
0
0
200
200
200
200
200
200
200
200
200
0
0
0
0
0
0
0
0
0
0
0
0
0
200
0
0
0
0
0
0
0
0
0
0
0
0
0
0
0
0
0
0
0
0
0
0
200
200
200
200
200
200
200
200
200
0
0
0
0
0
0
200
0
0
0
0
0
0
0
0
0
0
0
0
0
0
0
0
0
0
0
0
0
0
0
0
0
0
0
0
0
0
0
0
0
0
0
0
0
0
0
0
0
0
0
0
0
0
0
0
0
0
0
0
0
0
0
0
0
0
0
0
0
0
0
0
0
0
0
0
0
0
0
0
0
0
0
0
0
0
0
0
0
0
0
0
0
0
0
0
0
0
0
0
0
0
0
0
0
0
0
0
0
0
0
0
0
0
0
0
0
0
0
0
0
0
0
0
0
0
0
0
0
0
0
0
0
0
0
0
0
0
0
0
0
0
0
0
0
0
0
0
0
0
0
0
0
0
0
0
0
0
0
0
0
0
0
0
0
0
0
0
0
0
0
0
0
0
0
0
0
0
0
0
0
0
0
0
0
0
0
0
0
0
0
0
0
0
0
0
0
0
0
0
0
0
0
0
0
0
0
0
0
0
0
0
0
0
0
0
0
0
0
0
0
0
0
0
0
0
0
0
0
0
0
0
0
0
0
0
0
0
0
0
0
0
0
0
0
0

