# vtk DataFile Version 3.0
Gravity inversion using rectangular prisms
ASCII
DATASET UNSTRUCTURED_GRID

POINTS	1747	double
0	0	0
0	0	200
0	0	400
0	0	600
0	0	800
0	0	1000
0	200	0
0	200	200
0	200	400
0	200	600
0	200	800
0	200	1000
0	400	0
0	400	200
0	400	400
0	400	600
0	400	800
0	400	1000
0	600	0
0	600	200
0	600	400
0	600	600
0	600	800
0	600	1000
0	800	0
0	800	200
0	800	400
0	800	600
0	800	800
0	800	1000
0	1000	0
0	1000	200
0	1000	400
0	1000	600
0	1000	800
0	1000	1000
0	1200	0
0	1200	200
0	1200	400
0	1200	600
0	1200	800
0	1200	1000
0	1400	0
0	1400	200
0	1400	400
0	1400	600
0	1400	800
0	1400	1000
0	1600	0
0	1600	200
0	1600	400
0	1600	600
0	1600	800
0	1600	1000
0	1800	0
0	1800	200
0	1800	400
0	1800	600
0	1800	800
0	1800	1000
0	2000	0
0	2000	200
0	2000	400
0	2000	600
0	2000	800
0	2000	1000
200	0	0
200	0	200
200	0	400
200	0	600
200	0	800
200	0	1000
200	200	0
200	200	200
200	200	400
200	200	600
200	200	800
200	200	1000
200	400	0
200	400	200
200	400	400
200	400	600
200	400	800
200	400	1000
200	600	0
200	600	200
200	600	400
200	600	600
200	600	800
200	600	1000
200	800	0
200	800	200
200	800	400
200	800	600
200	800	800
200	800	1000
200	1000	0
200	1000	200
200	1000	400
200	1000	600
200	1000	800
200	1000	1000
200	1200	0
200	1200	200
200	1200	400
200	1200	600
200	1200	800
200	1200	1000
200	1400	0
200	1400	200
200	1400	400
200	1400	600
200	1400	800
200	1400	1000
200	1600	0
200	1600	200
200	1600	400
200	1600	600
200	1600	800
200	1600	1000
200	1800	0
200	1800	200
200	1800	400
200	1800	600
200	1800	800
200	1800	1000
200	2000	0
200	2000	200
200	2000	400
200	2000	600
200	2000	800
200	2000	1000
400	0	0
400	0	200
400	0	400
400	0	600
400	0	800
400	0	1000
400	200	0
400	200	200
400	200	400
400	200	600
400	200	800
400	200	1000
400	400	0
400	400	200
400	400	300
400	400	400
400	400	600
400	400	800
400	400	1000
400	500	200
400	500	300
400	500	400
400	600	0
400	600	100
400	600	200
400	600	300
400	600	400
400	600	600
400	600	800
400	600	1000
400	700	0
400	700	100
400	700	200
400	700	300
400	700	400
400	800	0
400	800	100
400	800	200
400	800	300
400	800	400
400	800	600
400	800	800
400	800	1000
400	900	200
400	900	300
400	900	400
400	1000	0
400	1000	200
400	1000	300
400	1000	400
400	1000	600
400	1000	800
400	1000	1000
400	1200	0
400	1200	200
400	1200	400
400	1200	600
400	1200	800
400	1200	1000
400	1400	0
400	1400	200
400	1400	400
400	1400	600
400	1400	800
400	1400	1000
400	1600	0
400	1600	200
400	1600	400
400	1600	600
400	1600	800
400	1600	1000
400	1800	0
400	1800	200
400	1800	400
400	1800	600
400	1800	800
400	1800	1000
400	2000	0
400	2000	200
400	2000	400
400	2000	600
400	2000	800
400	2000	1000
500	400	200
500	400	300
500	400	400
500	500	200
500	500	300
500	500	400
500	600	0
500	600	100
500	600	200
500	600	300
500	600	400
500	700	0
500	700	100
500	700	200
500	700	300
500	700	400
500	800	0
500	800	100
500	800	200
500	800	300
500	800	400
500	900	200
500	900	300
500	900	400
500	1000	200
500	1000	300
500	1000	400
600	0	0
600	0	200
600	0	400
600	0	600
600	0	800
600	0	1000
600	200	0
600	200	200
600	200	300
600	200	400
600	200	600
600	200	800
600	200	1000
600	300	200
600	300	300
600	300	400
600	400	0
600	400	100
600	400	200
600	400	300
600	400	400
600	400	500
600	400	600
600	400	800
600	400	1000
600	500	0
600	500	100
600	500	200
600	500	300
600	500	400
600	500	500
600	500	600
600	600	0
600	600	100
600	600	200
600	600	300
600	600	400
600	600	500
600	600	600
600	600	800
600	600	1000
600	700	0
600	700	100
600	700	200
600	700	300
600	700	400
600	700	500
600	700	600
600	800	0
600	800	100
600	800	200
600	800	300
600	800	400
600	800	500
600	800	600
600	800	800
600	800	1000
600	900	0
600	900	100
600	900	200
600	900	300
600	900	400
600	1000	0
600	1000	100
600	1000	200
600	1000	300
600	1000	400
600	1000	600
600	1000	800
600	1000	1000
600	1100	200
600	1100	300
600	1100	400
600	1200	0
600	1200	200
600	1200	300
600	1200	400
600	1200	600
600	1200	800
600	1200	1000
600	1300	200
600	1300	300
600	1300	400
600	1400	0
600	1400	200
600	1400	300
600	1400	400
600	1400	600
600	1400	800
600	1400	1000
600	1500	200
600	1500	300
600	1500	400
600	1600	0
600	1600	200
600	1600	300
600	1600	400
600	1600	600
600	1600	800
600	1600	1000
600	1800	0
600	1800	200
600	1800	400
600	1800	600
600	1800	800
600	1800	1000
600	2000	0
600	2000	200
600	2000	400
600	2000	600
600	2000	800
600	2000	1000
700	200	200
700	200	300
700	200	400
700	300	200
700	300	300
700	300	400
700	400	0
700	400	100
700	400	200
700	400	300
700	400	400
700	400	500
700	400	600
700	500	0
700	500	100
700	500	200
700	500	300
700	500	400
700	500	500
700	500	600
700	600	0
700	600	100
700	600	200
700	600	300
700	600	400
700	600	500
700	600	600
700	700	0
700	700	100
700	700	200
700	700	300
700	700	400
700	700	500
700	700	600
700	800	0
700	800	100
700	800	200
700	800	300
700	800	400
700	800	500
700	800	600
700	900	0
700	900	100
700	900	200
700	900	300
700	900	400
700	1000	0
700	1000	100
700	1000	200
700	1000	300
700	1000	400
700	1100	200
700	1100	300
700	1100	400
700	1200	200
700	1200	300
700	1200	400
700	1300	200
700	1300	300
700	1300	400
700	1400	200
700	1400	300
700	1400	400
700	1500	200
700	1500	300
700	1500	400
700	1600	200
700	1600	300
700	1600	400
800	0	0
800	0	200
800	0	400
800	0	600
800	0	800
800	0	1000
800	200	0
800	200	200
800	200	300
800	200	400
800	200	600
800	200	800
800	200	1000
800	300	200
800	300	300
800	300	400
800	400	0
800	400	100
800	400	200
800	400	300
800	400	400
800	400	500
800	400	600
800	400	800
800	400	1000
800	500	0
800	500	100
800	500	200
800	500	300
800	500	400
800	500	500
800	500	600
800	600	0
800	600	100
800	600	200
800	600	300
800	600	400
800	600	500
800	600	600
800	600	800
800	600	1000
800	700	0
800	700	100
800	700	200
800	700	300
800	700	400
800	700	500
800	700	600
800	800	0
800	800	100
800	800	200
800	800	300
800	800	400
800	800	500
800	800	600
800	800	800
800	800	1000
800	900	0
800	900	100
800	900	200
800	900	300
800	900	400
800	900	500
800	900	600
800	1000	0
800	1000	100
800	1000	200
800	1000	300
800	1000	400
800	1000	500
800	1000	600
800	1000	800
800	1000	1000
800	1100	200
800	1100	300
800	1100	400
800	1200	0
800	1200	100
800	1200	200
800	1200	300
800	1200	400
800	1200	500
800	1200	600
800	1200	700
800	1200	800
800	1200	1000
800	1300	0
800	1300	100
800	1300	200
800	1300	300
800	1300	400
800	1300	500
800	1300	600
800	1300	700
800	1300	800
800	1400	0
800	1400	100
800	1400	200
800	1400	300
800	1400	400
800	1400	500
800	1400	600
800	1400	700
800	1400	800
800	1400	1000
800	1500	0
800	1500	100
800	1500	200
800	1500	300
800	1500	400
800	1500	500
800	1500	600
800	1600	0
800	1600	100
800	1600	200
800	1600	300
800	1600	400
800	1600	500
800	1600	600
800	1600	800
800	1600	1000
800	1700	200
800	1700	300
800	1700	400
800	1800	0
800	1800	200
800	1800	300
800	1800	400
800	1800	600
800	1800	800
800	1800	1000
800	2000	0
800	2000	200
800	2000	400
800	2000	600
800	2000	800
800	2000	1000
900	200	200
900	200	300
900	200	400
900	300	200
900	300	300
900	300	400
900	400	0
900	400	100
900	400	200
900	400	300
900	400	400
900	400	500
900	400	600
900	500	0
900	500	100
900	500	200
900	500	300
900	500	400
900	500	500
900	500	600
900	600	0
900	600	100
900	600	200
900	600	300
900	600	400
900	600	500
900	600	600
900	700	0
900	700	100
900	700	200
900	700	300
900	700	400
900	700	500
900	700	600
900	800	0
900	800	100
900	800	200
900	800	300
900	800	400
900	800	500
900	800	600
900	900	0
900	900	100
900	900	200
900	900	300
900	900	400
900	900	500
900	900	600
900	1000	0
900	1000	100
900	1000	200
900	1000	300
900	1000	400
900	1000	500
900	1000	600
900	1100	200
900	1100	300
900	1100	400
900	1200	0
900	1200	100
900	1200	200
900	1200	300
900	1200	400
900	1200	500
900	1200	600
900	1200	700
900	1200	800
900	1300	0
900	1300	100
900	1300	200
900	1300	300
900	1300	400
900	1300	500
900	1300	600
900	1300	700
900	1300	800
900	1400	0
900	1400	100
900	1400	200
900	1400	300
900	1400	400
900	1400	500
900	1400	600
900	1400	700
900	1400	800
900	1500	0
900	1500	100
900	1500	200
900	1500	300
900	1500	400
900	1500	500
900	1500	600
900	1600	0
900	1600	100
900	1600	200
900	1600	300
900	1600	400
900	1600	500
900	1600	600
900	1700	200
900	1700	300
900	1700	400
900	1800	200
900	1800	300
900	1800	400
1000	0	0
1000	0	200
1000	0	400
1000	0	600
1000	0	800
1000	0	1000
1000	200	0
1000	200	200
1000	200	300
1000	200	400
1000	200	600
1000	200	800
1000	200	1000
1000	300	200
1000	300	300
1000	300	400
1000	400	0
1000	400	100
1000	400	200
1000	400	300
1000	400	400
1000	400	500
1000	400	600
1000	400	800
1000	400	1000
1000	500	0
1000	500	100
1000	500	200
1000	500	300
1000	500	400
1000	500	500
1000	500	600
1000	600	0
1000	600	100
1000	600	200
1000	600	300
1000	600	400
1000	600	500
1000	600	600
1000	600	800
1000	600	1000
1000	700	0
1000	700	100
1000	700	200
1000	700	300
1000	700	400
1000	700	500
1000	700	600
1000	800	0
1000	800	100
1000	800	200
1000	800	300
1000	800	400
1000	800	500
1000	800	600
1000	800	800
1000	800	1000
1000	900	0
1000	900	100
1000	900	200
1000	900	300
1000	900	400
1000	900	500
1000	900	600
1000	1000	0
1000	1000	100
1000	1000	200
1000	1000	300
1000	1000	400
1000	1000	500
1000	1000	600
1000	1000	800
1000	1000	1000
1000	1100	200
1000	1100	300
1000	1100	400
1000	1100	500
1000	1100	600
1000	1200	0
1000	1200	100
1000	1200	200
1000	1200	300
1000	1200	400
1000	1200	500
1000	1200	600
1000	1200	700
1000	1200	800
1000	1200	1000
1000	1300	0
1000	1300	100
1000	1300	200
1000	1300	300
1000	1300	400
1000	1300	500
1000	1300	600
1000	1300	700
1000	1300	800
1000	1400	0
1000	1400	100
1000	1400	200
1000	1400	300
1000	1400	400
1000	1400	500
1000	1400	600
1000	1400	700
1000	1400	800
1000	1400	1000
1000	1500	0
1000	1500	100
1000	1500	200
1000	1500	300
1000	1500	400
1000	1500	500
1000	1500	600
1000	1500	700
1000	1500	800
1000	1600	0
1000	1600	100
1000	1600	200
1000	1600	300
1000	1600	400
1000	1600	500
1000	1600	600
1000	1600	700
1000	1600	800
1000	1600	1000
1000	1700	200
1000	1700	300
1000	1700	400
1000	1700	500
1000	1700	600
1000	1800	0
1000	1800	200
1000	1800	300
1000	1800	400
1000	1800	500
1000	1800	600
1000	1800	800
1000	1800	1000
1000	2000	0
1000	2000	200
1000	2000	400
[...]
CELL_DATA	1200
SCALARS model double 1
LOOKUP_TABLE table0
0.0784492
-4.50585
-6.31142
-3.85021
-2.09049
0.341909
-4.73819
-5.01308
-2.4827
-0.954014
0.0810992
-10.6033
-5.9639
-1.42753
0.152202
-0.316782
-12.0938
-6.89443
-1.13282
0.676907
-0.513995
-10.2734
-7.08696
-1.73911
0.415633
-0.247019
-7.8515
-7.0529
-2.70291
-0.338854
-0.476547
-4.93353
-6.08692
-3.29607
-1.18556
-0.821187
0.083581
-4.5071
-3.75236
-2.12943
0.0458231
3.4325
-6.08804
-5.6737
-3.57955
1.4736
-7.92055
-13.3694
-9.02337
-5.18951
-0.44165
-1.30367
-3.92516
-2.00743
-0.724205
-0.723636
-4.36258
-1.76684
1.41159
1.68409
-2.09398
-2.70553
3.86236
6.06734
4.43184
-2.78361
8.44456
9.25464
8.8361
6.02833
-2.89436
-1.45333
4.63206
7.05285
5.61678
-1.58703
-8.53759
-1.77847
3.21705
3.94399
-1.33429
-5.4939
-3.57119
0.473476
2.16812
-1.3677
-1.63777
-3.08395
-1.13705
0.527695
-0.147098
1.17606
-4.55483
-3.52529
-1.40492
1.1111
-8.57117
-10.5826
-6.69838
-3.19596
-0.89951
-6.28851
-3.98361
-0.309824
0.599992
-3.63002
4.84305
7.24132
7.18367
4.65568
0.617835
3.14419
12.7514
26.0572
27.0948
39.8358
36.3458
72.6123
54.8476
35.6301
18.7211
9.62357
-2.40696
-0.191439
-1.08675
7.20706
9.40967
56.6167
9.42224
54.6373
37.1553
43.7908
35.6843
43.2331
97.4454
82.1951
95.7147
81.4449
55.2178
25.6958
12.6988
-3.01525
24.6595
25.8087
6.46969
14.1539
69.6213
51.8378
38.7384
35.1226
36.7016
21.4782
12.2329
-7.72069
-5.28952
9.90424
12.5768
9.69192
-5.34757
-12.9891
-2.45236
4.96751
7.09734
-3.399
-9.82263
-3.85006
2.08852
4.722
-0.774645
-5.086
-4.71003
-0.226227
2.11193
-0.264578
-6.61544
-8.46335
-2.95166
0.0989461
-0.639546
-10.9969
-4.52054
0.320307
1.02847
-3.25937
0.710027
4.45548
31.7462
26.4098
3.72792
7.87125
37.982
31.2198
18.4198
10.7676
5.87824
2.83349
5.0451
13.5724
63.6445
4.11149
17.063
14.4708
75.0312
59.1506
71.9486
115.102
106.462
80.1068
87.7153
144.069
124.948
39.1339
38.4254
47.5475
43.8509
40.5254
39.5404
49.2117
45.0492
27.2539
12.0291
21.267
93.0359
19.6589
92.1334
25.7869
107.523
23.9432
105.315
143.572
145.215
140.605
143.435
178.905
167.891
175.511
165.898
61.5507
57.7698
62.9163
59.1882
63.5431
59.1902
64.8168
60.5441
37.3775
16.1879
9.39133
63.0625
-0.638331
11.1219
10.6276
72.7479
-0.912308
17.407
110.3
100.262
53.9222
64.6748
137.275
117.437
72.7403
79.0286
66.1309
32.7843
16.6076
-13.1532
25.862
18.319
-1.45162
-0.741045
36.1581
26.3559
14.3797
9.29309
26.7815
21.449
15.1132
-10.6324
-2.88715
-3.73305
-5.44712
-5.28946
29.1049
21.2973
29.3339
17.3176
24.1688
3.22293
13.4169
-8.24956
-5.92865
-5.21398
-7.95683
-6.13577
28.2303
16.9002
24.2855
15.1996
23.5746
3.6134
10.9536
-3.28891
-17.2533
0.265678
5.68463
7.31515
-1.68771
-13.2309
-3.35878
3.11401
4.66679
0.183213
-9.88867
-5.18171
-0.828797
0.0596081
-3.5854
3.2588
10.253
38.6327
35.3251
0.879903
9.56025
31.1504
32.2214
13.0932
6.88554
3.58937
0.438333
12.57
10.595
63.1883
-0.686093
1.90928
4.21121
28.9689
75.7011
92.6354
136.176
128.706
41.8815
67.7463
79.8999
95.5343
35.316
34.1034
42.7785
38.8152
30.0718
30.4626
35.7954
34.3793
18.43
8.08105
18.2374
89.3749
16.9554
88.0568
6.9224
45.0092
5.5976
44.8046
168.255
168.647
165.675
166.848
87.9417
117.836
88.2234
116.612
55.2745
51.1139
56.3902
51.9337
41.7374
42.3465
42.7522
43.0707
26.2449
11.8841
6.94841
59.6435
-4.25113
5.15858
0.0702725
22.9879
-8.74817
-13.5323
130.624
121.624
70.976
86.6741
80.1895
91.8742
40.7269
64.7606
50.8232
47.8196
46.3849
45.9605
41.6202
41.8945
38.8277
40.8161
27.1131
14.6657
-17.4805
41.4032
39.2844
42.3551
40.976
38.5357
39.8238
66.9479
53.9403
51.6879
21.9531
17.5459
-5.9324
-26.1047
-0.704658
-6.11162
-0.437724
-10.5326
8.42785
24.4317
56.2353
82.0266
79.874
79.8753
132.838
132.862
171.196
160.677
58.978
55.9885
80.1087
80.1064
132.419
132.459
174.428
75.3945
-2.16216
-2.56755
-3.40792
-3.76455
1.02261
-0.342846
-0.126267
-1.42459
19.672
-0.104345
-3.07991
-5.09408
-7.27576
8.19511
24.3911
0.965397
24.4002
79.9137
79.9237
79.8244
79.9219
175.527
175.519
115.527
126.781
80.1455
80.1353
80.1235
52.6157
174.471
76.0177
76.0339
62.6652
14.4114
18.4171
-6.34005
22.0403
5.45984
-14.7413
-20.3247
33.0724
10.9247
-20.7312
-24.7826
26.4831
16.5597
13.5824
-3.5836
-16.7387
8.84602
11.9953
9.83913
0.633696
-1.80235
-3.50906
-2.88588
-1.77397
0.605137
-5.21623
-3.25189
-2.6055
-1.2538
-1.89851
16.3245
-0.736162
2.22998
-12.7546
-55.0963
-50.6697
-98.7386
-73.8564
-21.8168
-4.94432
-0.835514
-2.44802
3.38329
-0.774216
1.53458
-10.4769
-50.4272
-12.1878
-46.5141
5.69359
-22.6694
10.9078
-20.6842
-134.329
-115.197
-130.958
-113.92
-10.0583
-12.5214
-7.80863
-10.9466
-30.8306
-26.189
-28.5474
-24.6214
-5.05735
1.03742
-9.73359
4.30949
-8.42997
12.6288
4.78458
-101.879
-73.0867
-57.0884
-46.4073
6.09143
6.10849
11.1313
10.0597
-9.1707
-3.87934
-1.44434
1.25737
5.05785
6.45313
-12.4136
13.7759
18.2828
68.1746
54.0207
-4.21722
11.1983
69.9104
54.7165
25.6996
27.2166
46.7799
41.6205
23.4166
25.4984
46.0245
40.7048
26.5182
15.0442
6.83357
-4.79088
19.8609
24.4787
14.3215
3.0721
27.5632
24.4354
128.049
128.078
179.62
213.883
128.069
128.081
208.97
236.627
132.853
132.857
175.336
117.144
132.865
132.844
175.342
122.792
40.8942
41.3644
41.5602
41.848
39.011
39.8437
39.7947
40.4045
22.3787
20.6745
24.4362
9.52537
24.4818
27.59
24.4328
14.2938
24.4561
173.43
173.419
114.565
176.092
173.443
173.428
143.12
198.59
175.315
110.856
110.873
104.724
175.321
117.328
117.342
110.126
35.0551
34.3093
34.0259
33.6477
33.4243
33.1431
32.4737
32.5442
23.2216
-5.63266
61.9673
24.1511
-18.6104
-34.4896
69.1081
24.7847
-21.1857
-37.4711
45.3322
41.2406
30.2535
30.8815
42.696
39.4327
27.0977
28.8444
28.2971
17.9291
-3.07119
-24.5265
24.9473
19.9735
13.4627
0.643236
8.71914
-1.36189
-4.09386
-3.1508
3.31614
6.52273
-1.91581
-37.1348
-32.4381
2.37332
-3.22611
-39.5996
-33.3531
-16.6558
-9.96314
-5.29497
-2.87856
9.13578
-15.0584
-48.1718
-6.08298
-4.2899
-16.3495
-56.6971
-73.718
-102.571
-160.3
-157.646
-85.3088
-110.751
-176.867
-167.766
-46.3485
-47.013
-56.6872
-53.909
-49.9678
-50.5173
-60.4294
-57.4962
-23.3578
-8.49386
-20.8571
-79.4541
-20.5007
-82.1528
-26.3002
-88.6675
-27.0278
-91.9201
-203.862
-230.791
-208.449
-234.916
-229.869
-247.746
-238.038
-252.899
-73.4414
-72.455
-72.5245
-71.7897
-79.8457
-76.979
-79.112
-76.4015
-30.6602
-8.89295
-14.3652
-64.2611
-4.22459
-30.3437
-17.5291
-69.0131
-3.49418
-29.4599
-169.774
-172.217
-81.7514
-113.822
-197.047
-190.834
-100.167
-129.99
-46.3116
-43.1196
-31.0694
-32.8242
-53.025
-47.9599
-37.1829
-37.4388
-13.1962
-2.83653
-5.78641
-31.5959
-13.0735
65.9078
52.8396
-35.6214
-15.3255
61.8327
50.724
17.3099
20.8884
45.2451
40.0511
16.3049
20.1708
43.9929
39.3015
25.1506
25.9016
23.9391
24.982
24.5645
25.5388
23.2069
24.5562
8.29592
16.6338
4.68957
27.7687
24.4389
13.1721
-4.72768
22.2989
24.3949
128.097
128.112
208.97
236.205
128.092
128.096
182.642
216.757
132.888
132.963
175.352
122.798
132.853
132.816
175.353
115.708
-23.0057
-25.7023
-25.0809
-27.4498
-27.4209
-28.9802
-29.6201
-30.7843
18.0436
27.5303
24.4471
15.3493
24.5721
20.7742
24.4052
10.3966
24.4145
173.435
173.42
143.16
198.886
173.411
173.409
110.126
173.344
175.352
115.21
115.22
107.047
175.348
107.285
107.291
100.609
-10.1403
-11.559
-7.86438
-9.65989
-13.3156
-13.8209
-10.8734
-11.8321
20.8834
-3.16362
69.3915
26.9773
-20.2341
-34.7146
63.8221
27.8578
-14.8429
-29.632
13.514
4.3476
-1.68941
-5.45283
7.29349
0.267359
-7.08503
-9.08927
22.672
16.9783
-2.22148
-22.0247
4.31846
19.5203
13.1433
0.838657
6.07855
-0.147576
-3.44087
-3.15474
4.07424
1.17139
-0.285356
-27.434
-19.4471
1.10625
0.64194
-17.2168
-14.7276
-11.2522
-10.0072
-6.07987
-5.25556
-0.890058
-12.0885
-45.2836
-0.606887
12.5841
-4.94687
-14.9066
-72.8496
-78.9842
-144.001
-120.831
-34.6239
-51.9943
-85.5905
-86.3212
-51.1798
-23.3403
-10.2032
-19.7596
-70.4943
-19.3384
-71.9732
-9.41128
-32.9229
-8.91756
-33.0584
-192.689
-186.014
-203.224
-193.957
-111.221
-134.434
-120.345
-141.856
-70.5719
-67.2263
-70.4851
-67.5286
-63.4651
-63.2617
-63.3493
-63.5609
-31.7746
-11.8252
-11.773
-51.1075
-3.07895
-14.7176
-4.38785
-19.2612
-0.137564
0.572714
-163.321
-151.146
-86.3356
-106.28
-100.953
-114.079
-46.0941
-77.0373
-52.0984
-48.8147
-38.3346
-39.6129
-48.0666
-46.8845
-35.8688
-38.3528
-21.3662
-7.68631
-4.2838
-25.5923
-7.81762
56.1745
47.9594
-18.7569
-4.72984
43.006
43.2505
15.504
19.5033
42.3043
38.1411
14.9892
19.0094
40.2142
27.7191
7.8321
1.02338
6.44755
-15.2816
12.9563
24.3209
-1.51006
-28.0131
2.82435
24.3258
132.813
132.854
175.345
175.348
132.755
132.881
94.9076
102.515
132.29
132.284
174.323
67.6304
132.266
50.3161
67.6234
43.9321
0.842865
9.29978
11.2239
24.3348
2.72925
24.3796
1.35594
24.3143
-3.15226
1.24627
175.349
175.342
97.068
110.96
97.0541
110.948
39.4159
67.6866
174.395
65.0843
65.0869
56.6493
65.0912
49.0835
46.9181
48.1519
6.48424
12.7539
-2.89546
29.8164
12.8277
-20.0213
-19.7868
17.9749
10.7452
-14.8409
-15.5101
9.2141
14.0434
11.1399
-1.7925
-15.2492
6.25958
11.5252
8.95498
0.814823
1.98355
1.42899
-1.24945
-1.95639
2.23815
-0.475001
-1.99154
-4.79436
-4.069
4.10708
-19.9241
-16.1915
-39.8007
-26.6481
3.59615
1.58941
-4.23906
-4.20906
-13.1107
-11.3968
-6.96817
3.1126
-61.4217
-51.4621
-63.6696
-53.6959
-4.70735
-11.6168
-3.02832
-12.4974
-21.535
-16.5455
-8.61645
2.11262
-50.154
-40.1865
-28.1163
-27.571
-3.18739
-10.2315
3.00804
-3.46003
-18.6929
-15.6026
-7.24018
-2.11058
-5.31682
10.9864
0.566266
12.1262
0.683553
9.72943
-5.31612
5.68169
-11.0864
-7.87727
-3.1729
-4.13258
33.1489
12.8231
23.1543
2.6132
-4.24752
-16.8121
-11.6666
-22.8119
0.13214
-3.70449
1.45739
-2.20311
25.1126
10.9729
18.7127
10.7688
-10.6181
-14.0819
-7.1923
-10.776
1.53527
1.36615
4.20211
-1.28477
-4.01992
-0.624732
3.07994
4.25457
-0.580593
-2.7843
-3.91777
1.764
3.36266
0.45589
2.04382
2.87401
0.36785
-0.778288
0.443337
4.84138
2.15449
-1.20884
-1.99443
0.558941
10.3016
-0.12937
-4.031
-3.67761
0.636209
12.2304
-3.49267
-6.92039
-4.94844
0.280358
8.91088
-8.80807
-8.77096
-4.97035
-0.236061
4.10202
-5.94152
-8.17312
-3.50811
0.584403
-8.62285
-8.65306
-5.201
-1.21347
0.335314
-7.60605
-3.08207
-1.80042
0.485648
0.846143
-4.80493
-5.18278
-1.4576
0.602714
1.24876
-17.9179
-10.0309
-3.26232
-0.127884
SCALARS m0 double 1
LOOKUP_TABLE table1
0
0
0
0
0
0
0
0
0
0
0
0
0
0
0
0
0
0
0
0
0
0
0
0
0
0
0
0
0
0
0
0
0
0
0
0
0
0
0
0
0
0
0
0
0
0
0
0
0
0
0
0
0
0
0
0
0
0
0
0
0
0
0
0
0
0
0
0
0
0
0
0
0
0
0
0
0
0
0
0
0
0
0
0
0
0
0
0
0
0
0
0
0
0
0
0
0
0
0
0
0
0
0
0
0
0
0
0
0
0
0
0
0
0
0
0
0
0
0
0
0
0
0
0
0
0
0
0
0
0
0
0
0
0
0
0
0
0
0
0
0
0
0
0
0
0
0
0
0
0
0
0
0
0
0
0
0
0
0
0
0
0
0
0
0
0
0
0
0
0
0
0
0
0
0
0
0
0
0
0
0
0
0
0
0
0
0
0
0
0
0
0
0
0
0
0
0
0
0
0
0
0
0
0
0
0
0
0
0
0
0
0
0
0
0
0
0
0
0
0
0
0
0
0
0
0
0
0
0
0
0
0
0
0
0
0
0
0
0
0
0
0
0
0
0
0
0
0
0
0
0
0
0
0
0
0
0
0
0
0
0
0
0
0
0
0
0
0
0
0
0
0
0
0
0
0
0
0
0
0
0
0
0
0
0
0
0
0
0
0
0
0
0
0
0
0
0
0
0
0
0
0
0
0
0
0
0
0
0
0
0
0
0
0
0
0
0
0
0
0
0
0
0
0
0
0
0
0
0
0
0
0
0
0
0
0
0
0
0
0
0
0
0
0
0
0
0
0
0
0
0
0
0
0
0
0
0
0
0
0
0
0
0
0
0
0
0
0
0
0
0
0
0
0
0
0
0
0
0
0
0
0
0
0
0
0
0
0
0
0
0
0
0
0
0
0
0
0
0
0
0
0
0
0
0
0
0
0
0
0
0
0
0
0
0
0
0
0
0
0
0
0
0
0
0
0
0
0
0
0
0
0
0
0
0
0
0
0
0
0
0
0
0
0
0
0
0
0
0
0
0
0
0
0
0
0
0
0
0
0
0
0
0
0
0
0
0
0
0
0
0
0
0
0
0
0
0
0
0
0
0
0
0
0
0
0
0
0
0
0
0
0
0
0
0
0
0
0
0
0
0
0
0
0
0
0
0
0
0
0
0
0
0
0
0
0
0
0
0
0
0
0
0
0
0
0
0
0
0
0
0
0
0
0
0
0
0
0
0
0
0
0
0
0
0
0
0
0
0
0
0
0
0
0
0
0
0
0
0
0
0
0
0
0
0
0
0
0
0
0
0
0
0
0
0
0
0
0
0
0
0
0
0
0
0
0
0
0
0
0
0
0
0
0
0
0
0
0
0
0
0
0
0
0
0
0
0
0
0
0
0
0
0
0
0
0
0
0
0
0
0
0
0
0
0
0
0
0
0
0
0
0
0
0
0
0
0
0
0
0
0
0
0
0
0
0
0
0
0
0
0
0
0
0
0
0
0
0
0
0
0
0
0
0
0
0
0
0
0
0
0
0
0
0
0
0
0
0
0
0
0
0
0
0
0
0
0
0
0
0
0
0
0
0
0
0
0
0
0
0
0
0
0
0
0
0
0
0
0
0
0
0
0
0
0
0
0
0
0
0
0
0
0
0
0
0
0
0
0
0
0
0
0
0
0
0
0
0
0
0
0
0
0
0
0
0
0
0
0
0
0
0
0
0
0
0
0
0
0
0
0
0
0
0
0
0
0
0
0
0
0
0
0
0
0
0
0
0
0
0
0
0
0
0
0
0
0
0
0
0
0
0
0
0
0
0
0
0
0
0
0
0
0
0
0
0
0
0
0
0
0
0
0
0
0
0
0
0
0
0
0
0
0
0
0
0
0
0
0
0
0
0
0
0
0
0
0
0
0
0
0
0
0
0
0
0
0
0
0
0
0
0
0
0
0
0
0
0
0
0
0
0
0
0
0
0
0
0
0
0
0
0
0
0
0
0
0
0
0
0
0
0
0
0
0
0
0
0
0
0
0
0
0
0
0
0
0
0
0
0
0
0
0
0
0
0
0
0
0
0
0
0
0
0
0
0
0
0
0
0
0
0
0
0
0
0
0
0
0
0
0
0
0
0
0
0
0
0
0
0
0
0
0
0
0
0
0
0
0
0
0
0
0
0
0
0
0
0
0
0
0
0
0
0
0
0
0
0
0
0
0
0
0
0
0
0
0
0
0
0
0
0
0
0
0
0
0
0
0
0
0
0
0
0
0
0
0
0
0
0
0
0
0
0
0
0
0
0
0
0
0
0
0
0
0
0
0
0
0
0
0
0
0
0
0
0
0
0
0
0
0
0
0
0
0
0
0
0
0
0
0
0
0
0
0
0
0
0
0
0
0
0
0
0
0
0
0
0
0
0
0
0
0
0
0
0
0
0
0
0
0
0
0
0
0
0
0
0
0
0
0
0
0
0
0
0
0
0
0
0
0
0
0
0
0
0
0
0
0
0
0
0
0
0
0
0
0
0
0
0
0
0
0
0
0
0
0
0
0
0
0
0
0
0
0
0
0
0
0
0
0
0
0
0
0
0
0
0
0
0
0
0
0
0
0
0
0
0
0
0
0
0
0
0
0
0
0
0
0
0
0
0
0
0
0
0
0
0
0
0
0
0
0
0
0
0
0
0
0
0
0
0
0
0
0
0
0
0
0
0
0
0
0
0
0
0
0
0
0
0
SCALARS m0s double 1
LOOKUP_TABLE table2
0
0
0
0
0
0
0
0
0
0
0
0
0
0
0
0
0
0
0
0
0
0
0
0
0
0
0
0
0
0
0
0
0
0
0
0
0
0
0
0
0
0
0
0
0
0
0
0
0
0
0
0
0
0
0
0
0
0
0
0
0
0
0
0
0
0
0
0
0
0
0
0
0
0
0
0
0
0
0
0
0
0
0
0
0
0
0
0
0
0
0
0
0
0
0
0
0
0
0
0
0
0
0
0
0
0
0
0
0
0
0
0
0
0
0
0
0
0
0
0
0
0
0
0
0
0
0
0
0
0
0
0
0
0
0
0
0
0
0
0
0
0
0
0
0
0
0
0
0
0
0
0
0
0
0
0
0
0
0
0
0
0
0
0
0
0
0
0
0
0
0
0
0
0
0
0
0
0
0
0
0
0
0
0
0
0
0
0
0
0
0
0
0
0
0
0
0
0
0
0
0
0
0
0
0
0
0
0
0
0
0
0
0
0
0
0
0
0
0
0
0
0
0
0
0
0
0
0
0
0
0
0
0
0
0
0
0
0
0
0
0
0
0
0
0
0
0
0
0
0
0
0
0
0
0
0
0
0
0
0
0
0
0
0
0
0
0
0
0
0
0
0
0
0
0
0
0
0
0
0
0
0
0
0
0
0
0
0
0
0
0
0
0
0
0
0
0
0
0
0
0
0
0
0
0
0
0
0
0
0
0
0
0
0
0
0
0
0
0
0
0
0
0
0
0
0
0
0
0
0
0
0
0
0
0
0
0
0
0
0
0
0
0
0
0
0
0
0
0
0
0
0
0
0
0
0
0
0
0
0
0
0
0
0
0
0
0
0
0
0
0
0
0
0
0
0
0
0
0
0
0
0
0
0
0
0
0
0
0
0
0
0
0
0
0
0
0
0
0
0
0
0
0
0
0
0
0
0
0
0
0
0
0
0
0
0
0
0
0
0
0
0
0
0
0
0
0
0
0
0
0
0
0
200
200
0
0
0
0
0
0
200
0
0
0
0
0
0
0
0
0
0
0
0
0
0
0
0
0
0
0
0
0
0
200
200
0
0
0
0
0
0
200
0
0
0
0
0
0
0
0
0
0
0
0
0
0
0
0
0
0
0
0
0
0
0
0
0
0
0
0
0
0
0
0
0
0
0
0
0
0
0
0
0
0
0
0
0
0
0
0
0
0
0
0
0
0
0
0
0
0
0
0
0
0
0
0
0
0
0
0
0
0
0
0
0
0
0
0
0
0
0
0
0
0
0
0
0
0
0
0
0
0
0
0
0
0
0
0
0
0
0
0
0
0
0
0
0
0
0
0
0
0
0
0
0
0
0
0
0
0
200
200
0
0
200
200
0
0
200
0
0
0
200
0
0
0
0
0
0
0
0
0
0
0
0
0
0
0
0
0
0
200
200
0
0
200
200
0
0
200
0
0
0
200
0
0
0
0
0
0
0
0
0
0
0
0
0
0
0
0
0
0
0
0
0
0
0
0
0
0
0
0
0
0
0
0
0
0
0
0
0
0
0
0
0
0
0
0
0
0
0
0
0
0
0
0
0
0
0
0
0
0
0
0
0
0
0
0
0
0
0
0
0
0
0
0
0
0
0
0
0
0
0
0
0
0
0
0
0
0
0
0
0
0
0
0
0
0
0
0
0
0
0
0
0
0
0
0
0
0
0
0
0
0
0
0
0
0
0
0
0
0
0
0
0
0
0
0
0
0
0
0
0
0
0
0
0
0
0
0
0
0
0
0
0
0
0
0
0
0
0
0
0
0
0
0
0
0
0
0
0
0
0
0
0
0
0
0
0
0
0
200
200
0
0
200
200
0
0
200
0
0
0
200
0
0
0
0
0
0
0
0
0
0
0
0
0
0
0
0
0
0
200
200
0
0
200
200
0
0
200
0
0
0
200
0
0
0
0
0
0
0
0
0
0
0
0
0
0
0
0
0
0
0
0
0
0
0
0
0
0
0
0
0
0
0
0
0
0
0
0
0
0
0
0
0
0
0
0
0
0
0
0
0
0
0
0
0
0
0
0
0
0
0
0
0
0
0
0
0
0
0
0
0
0
0
0
0
0
0
0
0
0
0
0
0
0
0
0
0
0
0
0
0
0
0
0
0
0
0
0
0
0
0
0
0
0
0
0
0
0
0
0
0
0
0
0
0
0
0
0
0
0
0
0
0
0
0
0
0
0
0
0
0
0
0
0
0
0
0
0
0
0
0
0
0
0
0
0
0
0
0
0
0
0
0
0
0
200
200
0
0
0
0
0
0
200
0
0
0
0
0
0
0
0
0
0
0
0
0
0
0
200
200
0
0
0
0
0
0
200
0
0
0
0
0
0
0
0
0
0
0
0
0
0
0
0
0
0
0
0
0
0
0
0
0
0
0
0
0
0
0
0
0
0
0
0
0
0
0
0
0
0
0
0
0
0
0
0
0
0
0
0
0
0
0
0
0
0
0
0
0
0
0
0
0
0
0
0
0
0
0
0
0
0
0
0
0
0
0
0
0
0
0
0
0
0
0
0
0
0
0
0
0
0
0
0
0
0
0
0
0
0
0
0
0
0
0
0
0
0
0
0
0
0
0
0
0
0
0
0
0
0
0
0
0
0
0
0
0
0
0
0
0
0
0
0
0
0
0
0
0
0
0
0
0
0
0
0
0
0
0
0
0
0
0
0
0
0
0
0
0
0
0
0
0
0
0
0

