# vtk DataFile Version 3.0
Gravity inversion using rectangular prisms
ASCII
DATASET UNSTRUCTURED_GRID

POINTS	3848	double
0	0	0
0	0	200
0	0	400
0	0	600
0	0	800
0	0	1000
0	200	0
0	200	200
0	200	400
0	200	600
0	200	800
0	200	1000
0	400	0
0	400	200
0	400	400
0	400	600
0	400	800
0	400	1000
0	600	0
0	600	200
0	600	400
0	600	600
0	600	800
0	600	1000
0	800	0
0	800	200
0	800	400
0	800	600
0	800	800
0	800	1000
0	1000	0
0	1000	200
0	1000	400
0	1000	600
0	1000	800
0	1000	1000
0	1200	0
0	1200	200
0	1200	400
0	1200	600
0	1200	800
0	1200	1000
0	1400	0
0	1400	200
0	1400	400
0	1400	600
0	1400	800
0	1400	1000
0	1600	0
0	1600	200
0	1600	400
0	1600	600
0	1600	800
0	1600	1000
0	1800	0
0	1800	200
0	1800	400
0	1800	600
0	1800	800
0	1800	1000
0	2000	0
0	2000	200
0	2000	400
0	2000	600
0	2000	800
0	2000	1000
200	0	0
200	0	200
200	0	400
200	0	600
200	0	800
200	0	1000
200	200	0
200	200	200
200	200	400
200	200	600
200	200	800
200	200	1000
200	400	0
200	400	200
200	400	400
200	400	600
200	400	800
200	400	1000
200	600	0
200	600	200
200	600	300
200	600	400
200	600	600
200	600	800
200	600	1000
200	700	200
200	700	300
200	700	400
200	800	0
200	800	200
200	800	300
200	800	400
200	800	600
200	800	800
200	800	1000
200	1000	0
200	1000	200
200	1000	400
200	1000	600
200	1000	800
200	1000	1000
200	1200	0
200	1200	200
200	1200	400
200	1200	600
200	1200	800
200	1200	1000
200	1400	0
200	1400	200
200	1400	400
200	1400	600
200	1400	800
200	1400	1000
200	1600	0
200	1600	200
200	1600	400
200	1600	600
200	1600	800
200	1600	1000
200	1800	0
200	1800	200
200	1800	400
200	1800	600
200	1800	800
200	1800	1000
200	2000	0
200	2000	200
200	2000	400
200	2000	600
200	2000	800
200	2000	1000
300	600	200
300	600	300
300	600	400
300	700	200
300	700	300
300	700	400
300	800	200
300	800	300
300	800	400
400	0	0
400	0	200
400	0	400
400	0	600
400	0	800
400	0	1000
400	200	0
400	200	200
400	200	300
400	200	400
400	200	600
400	200	800
400	200	1000
400	300	200
400	300	300
400	300	400
400	400	0
400	400	100
400	400	200
400	400	300
400	400	400
400	400	500
400	400	600
400	400	800
400	400	1000
400	500	0
400	500	100
400	500	200
400	500	300
400	500	400
400	500	500
400	500	600
400	600	0
400	600	100
400	600	200
400	600	300
400	600	400
400	600	500
400	600	600
400	600	800
400	600	1000
400	700	0
400	700	100
400	700	200
400	700	300
400	700	400
400	700	500
400	700	600
400	800	0
400	800	100
400	800	200
400	800	300
400	800	400
400	800	500
400	800	600
400	800	800
400	800	1000
400	900	200
400	900	300
400	900	400
400	900	500
400	900	600
400	1000	0
400	1000	200
400	1000	300
400	1000	400
400	1000	500
400	1000	600
400	1000	800
400	1000	1000
400	1100	200
400	1100	300
400	1100	400
400	1200	0
400	1200	200
400	1200	300
400	1200	400
400	1200	600
400	1200	800
400	1200	1000
400	1400	0
400	1400	200
400	1400	400
400	1400	600
400	1400	800
400	1400	1000
400	1600	0
400	1600	200
400	1600	400
400	1600	600
400	1600	800
400	1600	1000
400	1800	0
400	1800	200
400	1800	400
400	1800	600
400	1800	800
400	1800	1000
400	2000	0
400	2000	200
400	2000	400
400	2000	600
400	2000	800
400	2000	1000
500	200	200
500	200	300
500	200	400
500	300	200
500	300	300
500	300	400
500	400	0
500	400	100
500	400	200
500	400	300
500	400	400
500	400	500
500	400	600
500	500	0
500	500	100
500	500	200
500	500	250
500	500	300
500	500	350
500	500	400
500	500	500
500	500	600
500	550	200
500	550	250
500	550	300
500	550	350
500	550	400
500	600	0
500	600	100
500	600	200
500	600	250
500	600	300
500	600	350
500	600	400
500	600	500
500	600	600
500	700	0
500	700	100
500	700	200
500	700	300
500	700	400
500	700	500
500	700	600
500	800	0
500	800	100
500	800	200
500	800	300
500	800	400
500	800	500
500	800	600
500	900	200
500	900	300
500	900	400
500	900	500
500	900	600
500	1000	200
500	1000	300
500	1000	400
500	1000	500
500	1000	600
500	1100	200
500	1100	300
500	1100	400
500	1200	200
500	1200	300
500	1200	400
550	500	200
550	500	250
550	500	300
550	500	350
550	500	400
550	550	200
550	550	250
550	550	300
550	550	350
550	550	400
550	600	200
550	600	250
550	600	300
550	600	350
550	600	400
600	0	0
600	0	200
600	0	400
600	0	600
600	0	800
600	0	1000
600	200	0
600	200	200
600	200	300
600	200	400
600	200	500
600	200	600
600	200	800
600	200	1000
600	300	200
600	300	300
600	300	350
600	300	400
600	300	500
600	300	600
600	350	300
600	350	350
600	350	400
600	400	0
600	400	100
600	400	200
600	400	250
600	400	300
600	400	350
600	400	400
600	400	500
600	400	600
600	400	700
600	400	800
600	400	1000
600	450	200
600	450	250
600	450	300
600	450	350
600	450	400
600	500	0
600	500	100
600	500	200
600	500	250
600	500	300
600	500	350
600	500	400
600	500	500
600	500	600
600	500	700
600	500	800
600	550	200
600	550	250
600	550	300
600	550	350
600	550	400
600	600	0
600	600	100
600	600	200
600	600	250
600	600	300
600	600	350
600	600	400
600	600	500
600	600	600
600	600	700
600	600	800
600	600	1000
600	650	200
600	650	250
600	650	300
600	700	0
600	700	100
600	700	200
600	700	250
600	700	300
600	700	400
600	700	500
600	700	600
600	700	700
600	700	800
600	800	0
600	800	100
600	800	200
600	800	250
600	800	300
600	800	400
600	800	500
600	800	600
600	800	700
600	800	800
600	800	1000
600	850	200
600	850	250
600	850	300
600	900	0
600	900	100
600	900	200
600	900	250
600	900	300
600	900	350
600	900	400
600	900	500
600	900	600
600	950	200
600	950	250
600	950	300
600	950	350
600	950	400
600	1000	0
600	1000	100
600	1000	200
600	1000	250
600	1000	300
600	1000	350
600	1000	400
600	1000	500
600	1000	600
600	1000	800
600	1000	1000
600	1050	200
600	1050	250
600	1050	300
600	1050	350
600	1050	400
600	1100	0
600	1100	100
600	1100	200
600	1100	250
600	1100	300
600	1100	350
600	1100	400
600	1100	500
600	1100	600
600	1200	0
600	1200	100
600	1200	200
600	1200	300
600	1200	400
600	1200	500
600	1200	600
600	1200	700
600	1200	800
600	1200	1000
600	1300	200
600	1300	300
600	1300	400
600	1300	500
600	1300	600
600	1300	700
600	1300	800
600	1400	0
600	1400	200
600	1400	300
600	1400	400
600	1400	500
600	1400	600
600	1400	700
600	1400	800
600	1400	1000
600	1500	200
600	1500	300
600	1500	400
600	1500	500
600	1500	600
600	1600	0
600	1600	200
600	1600	300
600	1600	400
600	1600	500
600	1600	600
600	1600	800
600	1600	1000
600	1700	200
600	1700	300
600	1700	400
600	1800	0
600	1800	200
600	1800	300
600	1800	400
600	1800	600
600	1800	800
600	1800	1000
600	2000	0
600	2000	200
600	2000	400
600	2000	600
600	2000	800
600	2000	1000
650	300	300
650	300	350
650	300	400
650	350	300
650	350	350
650	350	400
650	400	200
650	400	250
650	400	300
650	400	350
650	400	400
650	450	200
650	450	250
650	450	300
650	450	350
650	450	400
650	500	200
650	500	250
650	500	300
650	500	350
650	500	400
650	550	200
650	550	250
650	550	300
650	600	200
650	600	250
650	600	300
650	650	200
650	650	250
650	650	300
650	700	200
650	700	250
650	700	300
650	800	200
650	800	250
650	800	300
650	850	200
650	850	250
650	850	300
650	900	200
650	900	250
650	900	300
650	900	350
650	900	400
650	950	200
650	950	250
650	950	300
650	950	350
650	950	400
650	1000	200
650	1000	250
650	1000	300
650	1000	350
650	1000	400
650	1050	200
650	1050	250
650	1050	300
650	1050	350
650	1050	400
650	1100	200
650	1100	250
650	1100	300
650	1100	350
650	1100	400
700	200	200
700	200	300
700	200	400
700	200	500
700	200	600
700	300	200
700	300	300
700	300	350
700	300	400
700	300	500
700	300	600
700	350	300
700	350	350
700	350	400
700	400	0
700	400	100
700	400	200
700	400	250
700	400	300
700	400	350
700	400	400
700	400	500
700	400	600
700	400	700
700	400	800
700	450	200
700	450	250
700	450	300
700	450	350
700	450	400
700	500	0
700	500	100
700	500	200
700	500	250
700	500	300
700	500	350
700	500	400
700	500	500
700	500	600
700	500	700
700	500	800
700	550	200
700	550	250
700	550	300
700	600	0
700	600	100
700	600	150
700	600	200
700	600	250
700	600	300
700	600	400
700	600	500
700	600	600
700	600	700
700	600	800
700	650	100
700	650	150
700	650	200
700	650	250
700	650	300
700	700	0
700	700	100
700	700	150
700	700	200
700	700	250
700	700	300
700	700	400
700	700	500
700	700	600
700	700	700
700	700	800
700	750	200
700	750	250
700	750	300
700	800	0
700	800	100
700	800	200
700	800	250
700	800	300
700	800	400
700	800	500
700	800	600
700	800	700
700	800	800
700	850	200
700	850	250
700	850	300
700	900	0
700	900	100
700	900	200
700	900	250
700	900	300
700	900	350
700	900	400
700	900	500
700	900	600
700	950	200
700	950	250
700	950	300
700	950	350
700	950	400
700	1000	0
700	1000	100
700	1000	200
700	1000	250
700	1000	300
700	1000	350
700	1000	400
700	1000	500
700	1000	600
700	1050	200
700	1050	250
700	1050	300
700	1050	350
700	1050	400
700	1100	0
700	1100	100
700	1100	200
700	1100	250
700	1100	300
700	1100	350
700	1100	400
700	1100	500
700	1100	600
700	1200	0
700	1200	100
700	1200	200
700	1200	300
700	1200	400
700	1200	500
700	1200	600
700	1200	700
700	1200	800
700	1300	200
700	1300	300
700	1300	400
700	1300	500
700	1300	600
700	1300	700
700	1300	800
700	1400	200
700	1400	300
700	1400	400
700	1400	500
700	1400	600
700	1400	700
700	1400	800
700	1500	200
700	1500	300
700	1500	400
700	1500	500
700	1500	600
700	1600	200
700	1600	300
700	1600	400
700	1600	500
700	1600	600
700	1700	200
700	1700	300
700	1700	400
700	1800	200
700	1800	300
700	1800	400
750	300	300
750	300	350
750	300	400
750	350	300
750	350	350
750	350	400
750	400	200
750	400	250
750	400	300
750	400	350
750	400	400
750	450	200
750	450	250
750	450	300
750	450	350
750	450	400
750	500	200
750	500	250
750	500	300
750	500	350
750	500	400
750	600	100
750	600	150
750	600	200
750	600	250
750	600	300
750	650	100
750	650	150
750	650	200
750	650	250
750	650	300
750	700	100
750	700	150
750	700	200
750	700	250
750	700	300
750	750	200
750	750	250
750	750	300
750	800	200
750	800	250
750	800	300
750	900	200
750	900	250
750	900	300
750	900	350
750	900	400
750	950	200
750	950	250
750	950	300
750	950	350
750	950	400
750	1000	200
750	1000	250
750	1000	300
750	1000	350
750	1000	400
750	1050	200
750	1050	250
750	1050	300
750	1050	350
750	1050	400
750	1100	200
750	1100	250
750	1100	300
750	1100	350
750	1100	400
800	0	0
800	0	200
800	0	400
800	0	600
800	0	800
800	0	1000
800	200	0
[...]
CELL_DATA	2551
SCALARS model double 1
LOOKUP_TABLE table0
-0.686549
14.0029
-14.7029
-15.229
-11.3344
-0.366842
5.14386
-9.63224
-10.3989
-7.879
-0.10801
0.126823
-15.5078
-9.20931
-5.34268
-0.460984
1.42598
-17.4131
-8.7291
-3.99903
0.559002
-2.12851
-16.3001
-8.39632
-3.76966
-0.329011
6.82096
-10.6763
-8.02883
-4.28766
-0.127164
0.0535312
-10.0607
-8.49246
-5.08072
0.0135807
-3.5072
-9.35014
-8.70165
-5.65693
-0.27402
8.20177
-6.80345
-8.45529
-5.97443
0.0972302
-1.84344
-9.99795
-8.89363
-5.88141
-0.484896
1.64686
-19.771
-15.374
-10.0933
0.48379
-5.26098
-11.7503
-6.77941
-4.3081
-0.105353
-14.4534
-2.18091
2.30152
1.63736
-1.68788
-3.23165
-3.48093
-3.20424
-3.47372
-3.42498
-3.38891
-3.52075
-3.41093
6.65525
7.20198
4.85825
0.983709
-30.0642
-6.45434
2.84076
3.89862
1.15928
-11.4565
-14.2996
-3.80801
0.853624
0.28339
-1.24995
-13.1565
-7.39919
-1.75878
-1.44132
10.6797
-10.127
-8.53628
-3.28933
-0.744556
1.2957
-8.63245
-7.46871
-3.78403
0.348647
1.81429
-6.28687
-5.53717
-2.98714
-1.28604
18.8805
-18.1539
-12.2604
-7.22793
-0.215286
-17.982
-18.2729
-18.2174
-18.3689
-18.4072
-18.3804
-18.6136
-18.4734
-0.238039
3.18328
1.54023
0.307862
0.673541
2.43548
0.476624
-1.39331
0.011456
6.05945
1.36591
0.157942
1.47806
1.12027
2.21579
2.89306
3.1732
5.68634
5.69725
5.81522
5.79936
6.13756
6.00018
6.2747
6.10752
3.9565
3.96148
4.01413
4.01068
4.04593
4.03891
4.10658
4.08977
41.6356
41.8067
41.979
42.0956
42.2466
42.2482
42.8292
42.6161
25.7301
12.0943
-2.68735
3.90213
1.34542
4.10872
13.7985
6.88454
16.5736
7.66927
81.63
85.5137
81.6375
85.4916
90.2798
88.2275
90.5776
88.421
76.126
76.3762
76.1648
76.4129
77.4017
77.1335
77.4693
77.1738
38.716
18.118
1.56345
0.959994
2.6687
-0.508306
1.81695
8.90745
5.27827
4.07486
3.8457
37.4959
37.513
37.4041
37.4508
37.6689
37.6262
37.5537
37.5568
27.1096
16.0705
0.439433
-27.9029
-28.0125
-27.5406
-27.9685
-28.557
-28.2702
-28.3307
-28.2132
-5.78711
9.02777
10.2683
-2.09212
-6.56966
-14.421
-1.76235
5.39224
-1.12794
-7.26359
-13.9158
-8.01998
1.7117
-0.165971
8.18771
-13.8853
-8.12166
-0.381286
1.1459
-16.1144
-9.3728
-3.67825
0.662396
-0.484753
-4.91859
-20.4934
-8.97789
-4.63879
-1.98937
-13.2999
-13.5712
-12.892
-13.2011
-13.1924
-12.9726
-13.0198
-13.1934
-13.1861
-12.9661
-13.014
-10.3064
-12.9794
-12.5086
-13.1394
-13.1331
-12.9135
-12.9617
-13.1422
-13.137
-12.9171
-12.9661
17.9078
17.933
18.0751
18.0619
17.9428
17.9545
18.1054
18.0836
12.3824
5.44649
2.9346
4.98063
19.3808
19.4956
0.422454
7.56313
20.4428
25.2055
135.486
135.657
135.894
135.982
135.819
135.93
136.228
136.256
138.451
138.537
138.674
138.713
138.618
138.682
138.841
138.858
141.494
141.658
141.635
141.75
141.895
141.955
142.035
142.048
140.449
136.843
136.958
137.231
137.296
136.605
136.8
136.998
137.139
139.068
139.132
139.293
139.31
139.022
139.103
139.247
139.28
146.409
142.25
104.186
104.363
105.325
105.049
104.434
104.532
105.707
105.263
46.147
46.1539
46.1845
46.1833
46.1527
46.1591
46.19
46.1882
18.5033
32.5244
61.0612
33.1496
62.3502
44.0873
64.3651
64.4884
64.6601
64.751
64.188
64.4037
64.4312
64.6492
41.4415
62.7284
174.684
174.755
174.774
174.844
175.016
175.011
175.103
175.1
129.096
171.851
138.797
217.068
217.153
217.217
217.279
217.174
217.224
217.317
217.347
166.198
206.157
206.166
206.004
206.083
206.195
206.204
206.043
206.122
169.731
165.213
164.986
165.189
164.953
165.727
165.257
165.669
165.211
65.1939
65.0884
65.2107
65.1103
65.2442
65.1179
65.2529
65.134
26.7115
24.4321
25.8695
4.97326
11.5935
25.6692
25.9201
3.2119
11.8498
120.121
120.132
119.955
120.004
120.38
120.376
120.217
120.248
118.19
113.838
113.893
113.246
113.503
114.116
114.122
113.528
113.733
115.907
115.926
115.636
115.725
116.048
116.048
115.777
115.846
122.769
119.611
114.474
114.486
113.892
114.096
114.376
114.428
113.796
114.04
116.388
116.388
116.115
116.184
116.356
116.369
116.084
116.165
96.7434
96.3586
95.5161
95.6569
96.995
96.5238
95.6255
95.7573
51.9114
26.1065
-1.41085
-2.93181
-0.0803808
-2.59246
-4.8511
-2.56653
-3.18221
-2.3268
-57.9508
-58.1234
-58.4932
-58.4975
-58.0203
-58.1845
-58.5621
-58.5595
-58.1409
-58.2024
-58.4046
-58.4046
-58.1787
-58.2358
-58.4433
-58.4386
-58.9112
-59.0369
-58.0367
-58.206
-58.5764
-58.5807
-57.9912
-58.183
-58.5258
-58.5555
-58.4113
-58.4698
-58.6765
-58.6732
-58.3909
-58.4573
-58.655
-58.6602
-58.8541
-59.182
22.208
22.2326
21.7598
21.9085
22.4436
22.4218
21.9971
22.0913
34.0616
22.3471
-3.32324
-17.2316
-17.012
-16.6892
-16.6263
-16.869
-15.9834
-14.7717
-15.7747
14.7012
14.7562
14.7429
14.7845
15.256
15.1408
15.2806
15.1526
14.69
14.6948
14.6815
14.6865
14.7615
14.7495
14.7538
14.7415
18.9029
-2.07762
-25.5516
-26.3033
-24.4101
-25.9374
-24.468
-25.6153
-23.5303
-25.1519
15.8464
15.8564
15.8363
15.8437
16.0218
15.98
16.1108
15.9062
5.71765
12.8567
1.19225
-17.4298
-17.5898
-17.4734
-17.5016
-17.9609
-17.6247
-17.4337
-17.5648
-27.7964
-6.09455
6.09471
1.336
6.83587
-16.1465
-2.34929
5.37171
-0.206964
5.85258
-12.2534
-5.75034
-3.69902
-0.520898
-23.6414
-23.9251
-23.5907
-23.8888
-23.51
-23.9097
-23.8469
-23.8881
13.7521
13.7457
13.8728
13.8434
13.7443
13.743
13.878
13.8412
8.33
2.8001
4.89501
3.3249
19.0954
6.38348
-1.17991
2.35367
6.7425
4.62739
57.8832
57.875
58.4595
58.2827
57.5761
57.6736
58.1523
58.0799
69.4616
162.967
163.091
163.444
163.411
162.851
163.019
163.327
163.337
131.669
15.4832
36.1141
107.787
107.781
108.144
108.053
107.312
107.47
107.662
107.737
83.2415
82.6977
82.8595
83.8874
83.4815
81.737
82.3057
82.9076
82.9255
31.6964
31.6943
31.722
31.7144
31.6755
31.6769
31.6984
31.6956
11.6866
29.0133
41.5295
41.4842
41.7004
41.6562
41.2732
41.3667
41.4139
41.5288
32.0016
39.1079
39.0828
39.0248
39.0223
38.875
38.9456
38.8166
38.8922
9.79076
33.6179
8.952
30.0908
210.492
210.542
210.573
210.6
210.276
210.396
210.353
210.452
162.049
191.508
191.486
191.268
191.321
191.245
191.309
191.006
191.144
156.145
143.263
143.236
143.292
143.259
142.658
142.834
142.689
142.855
104.285
119.015
118.92
118.861
118.824
118.412
118.517
118.255
118.419
96.0344
127.805
127.205
127.706
127.139
126.66
126.663
126.692
126.692
126.507
126.54
126.538
126.568
126.54
126.541
126.561
126.56
126.44
126.457
126.46
126.476
126.599
126.598
126.575
126.582
126.444
126.475
126.42
126.458
126.495
126.495
126.48
126.484
126.394
126.41
126.379
126.399
46.4835
46.3425
46.4887
46.3557
46.2762
46.2014
46.2681
46.2055
19.0379
18.2077
5.71571
3.70142
3.32141
8.61651
4.78022
-6.05619
2.38087
126.601
126.532
126.269
126.318
126.515
126.485
126.182
126.271
117.198
46.0572
72.2966
61.366
67.684
-1.80386
38.0513
74.593
74.1806
73.5783
73.6743
73.5251
73.5609
72.5374
73.0626
47.9984
24.5236
-6.45372
-34.1714
-32.4756
-31.7314
-31.9539
-31.9446
-31.7535
-31.7945
-31.916
-31.9127
-31.7142
-31.7617
-36.5557
-32.8574
-28.4286
-31.3754
-31.3723
-31.167
-31.2163
-31.3144
-31.3218
-31.1044
-31.1648
66.4148
66.7903
66.6973
66.9057
66.3657
66.8058
66.7289
66.9226
65.5475
32.2827
-2.41003
4.47736
1.42055
3.10802
7.94556
7.04557
20.6592
-0.621604
-0.665019
-0.682013
-0.664098
-0.620886
-0.664629
-0.666184
-0.664777
33.9665
95.7469
95.8178
95.9388
95.9695
95.8959
95.9452
96.0882
96.0973
98.5007
98.6003
98.6679
98.7371
99.0332
99.0342
99.0335
99.0339
99.0335
98.5318
98.6206
99.1917
99.1916
98.7047
98.7616
99.192
99.192
98.8152
98.8617
99.1916
99.1916
98.8182
98.8708
99.1919
99.192
170.48
170.642
170.765
170.834
170.811
170.863
171.1
171.058
193.817
108.828
109.134
99.0345
99.0342
99.1926
99.1916
188.051
109.697
93.2335
93.2981
93.2646
93.3199
93.3305
93.3924
93.3701
93.4158
38.2609
4.7697
2.05861
1.28686
-3.15526
20.6731
-0.689156
-0.662868
-0.683946
-0.663821
-0.677222
-0.663097
-0.688638
-0.664243
9.51842
-0.664534
98.6416
98.7166
98.634
98.7137
99.0333
99.0342
99.0336
99.0337
99.0339
98.0913
98.526
95.3856
96.139
99.0336
99.0335
96.4697
97.0344
98.9479
98.9706
98.7486
98.7882
99.1052
99.1142
98.9045
98.9309
194.092
194.378
188.058
188.058
194.907
195.066
188.056
188.057
188.056
100.886
100.814
100.432
100.509
101.04
100.916
100.588
100.611
108.927
99.0348
99.0351
98.9968
99.0027
98.8629
98.8774
99.0714
99.0682
98.9369
98.9425
43.0108
188.052
113.755
113.748
113.744
113.583
113.61
113.766
113.763
113.6
113.628
74.2877
49.8497
49.8407
49.8039
49.8083
49.8985
49.8793
49.8505
49.8457
31.7875
-1.06696
2.03268
6.92042
4.27377
2.43642
2.46696
-0.628161
3.0528
-49.0841
-49.2385
-49.5498
-49.5689
-49.1147
-49.2789
-49.5868
-49.6132
-4.21328
-76.2587
-49.6394
-19.1649
17.3644
-75.6571
-40.7054
-28.631
-29.2912
-29.029
-29.4923
-28.7091
-28.7361
-28.8356
-28.8387
-28.6897
-28.7194
-28.817
-28.8225
-29.1201
-29.0982
-29.4358
11.5396
17.6294
4.93406
-37.8111
-23.1859
5.46745
12.2102
-0.165994
-0.870925
4.92272
-3.0165
-4.31447
-0.221356
6.84727
-8.26801
-8.05262
-5.34728
-1.35278
-1.06684
-1.63912
-1.79337
-1.50322
0.454072
-3.30663
-2.6125
1.21562
7.25968
14.0936
14.0074
14.1318
14.0377
13.4132
13.5483
13.4283
13.5683
4.49202
-29.5859
-42.1809
-111.09
-111.282
-111.447
-111.549
-111.693
-111.687
-112.051
-111.956
-87.1979
-32.3037
-32.3181
-32.1827
-32.3675
-33.068
-32.9509
-33.1809
-33.0612
-16.8825
-6.49516
-0.89398
0.359142
-1.376
-0.0620223
-4.43367
-16.7322
-16.7194
-16.6207
-16.7446
-18.8171
-17.8714
-18.8247
-17.9194
-4.56087
-8.22499
-8.25638
-8.2844
-8.24581
-10.0443
-9.18699
-10.0393
-9.16741
18.1322
17.7487
18.0818
17.7538
14.9944
15.5685
15.0188
15.5851
1.34707
1.32627
1.33056
1.31318
1.03477
1.07668
1.01663
1.06255
2.0687
1.93291
1.9851
1.87055
1.23033
1.37143
1.14634
1.3097
-4.94504
-4.96559
-4.96214
-4.97961
-5.25006
-5.20907
-5.26846
-5.22372
-150.493
-151.171
-150.581
-151.299
-152.499
-152.69
-152.577
-152.817
-117.048
-117.094
-117.093
-117.132
-117.268
-117.273
-117.312
-117.311
-139.394
-139.824
-139.053
-139.679
-140.895
-141.114
-140.504
-140.941
-118.274
-118.311
-118.262
-118.308
-118.485
-118.484
-118.473
-118.481
-49.3287
-49.3638
-49.3435
-49.3768
-49.4851
-49.4908
-49.5005
-49.5042
-49.8812
-49.8991
-49.8909
-49.9078
-49.9839
-49.9857
-49.9939
-49.9946
-49.3911
-49.4237
-49.3851
-49.4198
-49.5486
-49.5513
-49.5429
-49.5476
-49.9416
-49.9582
-49.9373
-49.9551
-50.0447
-50.045
-50.0405
-50.0419
-50.6051
-50.6001
-50.6249
-50.6543
-19.1942
-19.2041
-19.1867
-19.1967
-19.2833
-19.2701
-19.2763
-19.2627
-3.39899
-4.61732
-4.41292
-3.48911
-4.83241
-2.76278
-6.81399
-3.63609
-6.073
-22.6473
-11.7839
-48.6378
-10.6473
-102.757
-96.2087
-77.2262
-58.7286
-30.1699
-30.2661
-30.1732
-30.128
-31.0006
-30.783
-30.7395
-30.5328
3.25916
3.27031
3.29072
3.29734
3.20078
3.22409
3.23375
3.25181
9.877
-6.65256
-29.6238
7.98736
48.2336
61.4703
-31.7208
-4.06763
48.8427
63.0395
65.651
66.321
66.5968
66.8148
65.5884
66.2356
66.4106
66.6939
56.1767
32.726
12.324
-27.9477
37.8621
-1.23997
-0.666124
-0.203629
-0.665214
-1.51541
-0.666559
-0.4369
-0.665702
23.9093
10.2734
44.5957
-0.41634
-0.665996
-0.521544
-0.665332
-0.604002
-0.666204
-0.755386
-0.665796
98.8969
98.9248
99.1924
99.1926
98.8823
98.9343
99.1928
99.1929
99.1935
204.253
204.488
205.013
205.163
204.634
204.772
205.406
205.455
194.821
99.1937
99.1949
213.211
213.373
213.946
214.079
213.271
213.409
214.017
214.124
202.272
99.1946
99.1967
188.053
113.805
99.1954
99.1953
188.05
133.373
85.6594
85.6568
85.6766
85.6699
85.6236
85.607
85.6435
85.6207
50.8923
31.1474
-0.625395
-0.664346
-0.679807
-0.664013
-0.589118
-0.664161
-0.664892
-0.66455
12.916
-0.66597
38.0083
-0.56653
-0.66444
-0.634582
-0.664757
-0.569235
-0.66687
-0.620298
-0.667424
15.5285
-0.716903
-0.664389
-0.794753
-0.77609
-0.709916
-0.66914
-0.823253
-0.784425
188.266
188.256
188.055
188.055
188.257
188.249
188.054
188.054
188.054
145.739
145.759
145.254
145.434
145.939
145.893
145.449
145.565
141.513
188.29
188.271
188.054
188.055
188.295
188.274
188.054
188.054
188.053
165.012
165.028
164.777
164.884
165.066
165.064
164.827
164.918
163.584
188.051
131.388
131.388
107.538
188.05
142.808
142.809
120.637
71.2128
71.2053
71.1852
71.1886
71.2099
71.1801
71.1789
71.1637
48.4965
-2.43617
-5.08193
-1.437
-5.70955
-4.69763
-5.56994
-6.25316
-6.30026
35.2224
35.1475
34.7469
34.8207
35.3936
35.2961
34.9101
34.9646
51.7137
-48.7678
-24.7558
69.4783
78.4702
-15.651
-4.7434
25.1959
25.0722
24.4522
24.6456
25.5507
25.2896
24.4215
24.6475
35.9585
29.2295
3.70455
-47.8724
-4.86107
18.9007
18.659
-0.0921945
4.7482
11.5852
-2.09653
-4.92471
0.364165
7.26511
7.32725
7.05213
7.24601
7.13976
7.32184
6.62105
7.15908
-23.494
-23.5009
-23.6531
-23.6293
-23.508
-23.5132
-23.677
-23.6426
-20.3878
-11.8134
-2.18122
-3.30052
-3.56369
-21.7512
-21.8646
-23.9093
-23.0387
-21.9856
-22.0213
-24.1766
-23.1975
-2.08266
-9.97145
-10.2502
-26.6001
-26.6727
-28.6258
-27.7588
-26.6472
-26.6925
-28.6326
-27.7718
-56.9664
-57.0462
-57.5426
-57.4523
-57.1361
-57.1652
-57.7057
-57.5694
-67.7978
-180.511
-180.968
-181.79
-182.078
-181.309
-181.561
-182.548
-182.663
-149.46
-78.2695
-78.3465
-78.8607
-78.7732
-78.3114
-78.386
-78.9071
-78.814
-80.3631
-193.735
-193.983
-194.868
-195.018
-193.735
-194.004
-194.902
-195.06
-166.114
-107.102
-107.416
-107.51
-107.603
-107.373
-107.578
-107.914
-107.848
-53.3179
-53.3233
-53.357
-53.3543
-53.3413
-53.3436
-53.3792
-53.3738
-21.2355
4.03666
2.52031
6.38765
4.91799
0.557789
1.86125
4.47484
4.80586
-218.268
-222.968
-221.518
-225.403
-223.232
-226.325
-226.603
-228.819
3.32869
2.95663
1.42887
2.56592
2.51614
3.14573
1.33312
2.88088
-176.105
-177.798
-172.882
-176.055
-180.413
-180.723
-177.264
-179.033
-1.9634
-10.5676
-0.500771
-9.14671
-4.64098
-14.0519
-4.55052
-12.9812
-214.082
-216.655
-217.369
-219.033
-211.064
-215.109
-214.226
-217.432
-3.36746
-6.34945
-4.49988
-6.41928
-6.38821
-7.116
-5.9682
-6.89932
-174.915
-174.928
-172.132
-173.483
-172.336
-173.68
-169.262
-172.163
-245.425
-198.007
-224.81
-197.728
-255.054
-218.069
-235.028
-218.782
-102.104
-74.1316
-95.1631
-69.025
-112.875
-88.3988
-105.941
-83.2189
-69.2471
-69.2547
-69.2404
-69.248
-69.2813
-69.279
-69.2717
-69.2709
-22.7789
-0.369972
-78.5884
-78.3094
-77.2936
-77.6919
-79.2732
-78.7724
-77.9408
-78.1314
-1.06949
-28.1611
-5.74292
-92.6939
-92.4153
-91.4966
-91.8244
-92.6177
-92.4394
-91.4748
-91.8507
-0.318559
-22.5809
-157.14
-156.741
-89.9251
-93.1106
-166.079
-174.392
-88.0098
-104.349
-72.8913
-50.529
-38.7238
-25.2447
-81.9933
-61.8604
-47.3954
-35.9532
-35.5237
-35.5139
-35.4467
-35.4564
-35.5489
-35.5347
-35.4704
-35.4766
-6.60094
-3.90248
-29.0922
-18.1274
43.583
57.9659
-29.1342
-26.4643
31.852
49.2662
61.3269
61.9649
61.9953
62.3433
60.9421
61.6936
61.4859
62.0545
29.3456
29.3609
29.415
29.3878
29.3258
29.3431
29.477
29.3645
22.954
15.2343
6.96861
36.3673
-0.863239
-0.667209
-0.89336
-0.667814
-0.813911
-0.667496
-0.792142
-0.667495
14.6012
11.9265
30.4408
-0.687337
-0.667461
-0.882113
-0.667802
-0.768963
-0.667623
-1.07653
-0.668008
99.171
99.2035
99.1997
99.1995
98.8818
98.9136
99.2
99.1993
99.198
216.899
217.148
217.734
217.882
216.954
217.175
217.816
217.925
206.833
98.8542
98.8904
99.1997
99.2002
98.8513
98.8887
99.2005
99.1996
99.1995
226.615
226.938
227.518
227.719
226.317
226.727
227.237
227.519
203.92
99.1969
99.1951
188.048
130.466
99.1996
99.2024
188.048
97.2631
39.8477
0.487284
42.4862
1.81235
96.8524
96.8546
96.876
96.8775
96.8583
96.8613
96.8818
96.8841
-7.48956
96.9491
-5.95098
45.996
39.306
-0.556035
-0.667209
-0.593677
-0.666915
-0.510279
-0.66817
-0.546871
-0.668531
9.77079
-0.712395
-0.664969
-0.870741
-0.79986
-0.687254
-0.669187
-0.868361
-0.798364
40.1734
-0.503281
-0.667919
-0.530534
-0.667722
-0.57654
-0.667385
-0.57563
-0.668014
10.5567
-0.667749
188.31
188.283
188.053
188.052
188.313
188.284
188.051
188.052
188.051
163.179
163.17
162.936
163.023
163.137
163.141
162.893
162.994
168.199
188.339
188.302
188.049
188.05
188.329
188.297
188.047
188.048
188.049
150.354
150.314
150.059
150.129
150.228
150.23
149.934
150.046
152.98
188.049
134.846
134.846
110.16
188.049
97.5876
97.5869
97.4553
41.0137
2.05738
39.2245
4.22923
96.9202
-3.00777
96.9712
-0.352761
47.706
-8.79302
-7.40891
-4.99378
-7.46545
-8.50346
-7.20006
-2.90576
-7.03561
72.2641
87.9509
-4.73791
4.7081
47.9987
84.3758
-22.7302
3.06885
76.6754
57.1162
16.733
6.27952
96.1897
96.6674
24.5284
19.4976
37.4813
30.1632
-0.0899385
-33.7958
-5.06771
20.0413
18.3785
0.230663
0.247497
11.0206
0.00932572
-3.70911
0.248901
13.6996
-11.7181
-11.7062
-11.8512
-11.8055
-11.6873
-11.6907
-11.826
-11.7892
-16.098
-11.1159
-6.63558
-5.56612
-16.981
-7.72302
0.510448
-3.98306
-7.92393
-6.11066
-58.7498
-67.7187
-155.849
-155.857
-156.24
-156.156
-155.498
-155.622
-155.892
-155.922
-139.139
-0.195274
-33.0358
-78.3181
-78.2772
-78.5764
-78.4982
-77.9235
-78.0158
-78.1908
-78.238
-87.6674
-79.6939
-79.8291
-80.4355
-80.2753
-79.2052
-79.561
-79.9692
-80.0021
-46.1627
-21.5386
-20.6206
-35.4799
-34.6655
-35.6599
-34.7986
-33.6356
-33.7321
-33.8172
-33.863
-21.6041
-31.4527
-30.7166
-31.463
-30.7814
-30.0212
-29.9954
-30.0658
-30.0652
-12.8525
-29.172
-9.80832
-27.3021
-203.261
-203.162
-203.394
-203.41
-202.509
-202.644
-202.697
-202.923
-184.278
-186.494
-186.472
-186.35
-186.399
-186.274
-186.324
-186.13
-186.251
-186.488
-115.935
-119.345
-105.833
-122.787
-118.994
-118.852
-118.999
-118.862
-118.685
-118.741
-118.656
-118.731
-63.1348
-63.1269
-63.1379
-63.1317
-63.1135
-63.1117
-63.1143
-63.1151
-25.2867
-9.80676
-61.5714
-1.7311
-12.106
-1.98916
-27.942
-3.36847
28.5952
-132.722
-150.177
-69.9216
-92.7378
-76.2262
-100.719
-40.4723
-66.4022
-79.0674
-66.8115
-51.2159
-44.9452
-62.9276
-58.9057
-42.1722
-40.9707
-39.318
-13.859
-2.21167
-0.0220141
-3.0465
-1.52855
-1.12184
-1.43504
-1.40809
-3.2287
-32.6843
-30.9464
6.1891
32.8025
-40.2959
-32.9286
-38.4217
-38.4299
-37.9938
-38.1385
-38.5591
-38.5279
-38.1351
-38.2412
9.36076
4.16163
4.57046
4.62379
4.93382
4.1445
4.5167
4.55019
4.98881
2.3739
8.73233
6.85871
-8.8658
20.3068
-0.709145
-0.66836
-0.663622
-0.668232
-0.729648
-0.668579
-0.68874
-0.669095
2.1788
-12.8874
3.90816
-0.667228
98.7738
98.8295
99.2
99.2005
98.7537
98.8176
99.2006
99.2001
99.1996
194.325
194.477
195.205
195.14
188.046
188.045
188.046
188.046
188.044
97.7674
98.4656
99.2005
99.2005
93.7587
95.0817
95.4052
96.2696
99.1994
120.056
120.023
120.13
120.073
119.4
119.588
119.486
119.643
96.7573
99.1987
99.1974
188.047
108.946
99.1986
108.655
108.66
108.706
108.708
108.637
108.645
108.687
108.693
108.946
108.952
19.695
19.6114
19.7569
19.6467
19.5464
19.6886
19.5865
19.714
27.8456
21.0843
-0.652854
-0.668165
-0.636689
-0.666879
-0.679252
-0.66818
-0.647967
-0.667381
6.10098
-0.667846
4.50155
-0.668407
0.544263
-14.1101
188.236
188.214
188.046
188.048
188.047
188.047
188.046
188.047
188.047
122.097
121.939
120.492
120.923
119.805
119.828
119.592
120.339
97.3575
120.057
119.997
119.805
119.828
119.466
119.603
119.214
119.432
97.3575
37.2386
37.0684
36.7206
36.7259
36.876
36.821
36.3642
36.4811
96.4298
188.048
109.12
109.12
109.088
109.12
109.066
108.364
109.073
109.072
109.049
109.052
109.049
109.052
109.025
109.033
16.9367
16.7974
17.0066
16.8408
16.7618
16.8563
16.8378
16.8954
31.056
-3.49845
-3.11037
-4.70693
-3.32472
-8.92827
-3.05377
2.00824
-1.06345
3.13314
3.00831
2.67646
2.69232
2.88837
2.82825
2.44119
2.51818
96.2803
96.2907
96.2123
96.2402
96.302
96.3083
96.2369
96.2594
-51.1103
1.36249
-39.4846
-39.5978
-39.7341
-39.7767
-39.6095
-39.69
-39.8428
-39.8615
97.6112
97.6894
97.5262
97.5971
97.234
97.397
97.17
97.3133
-55.7494
-3.04318
17.6596
17.4383
16.9509
16.8237
17.4058
17.1892
17.1711
16.8723
17.8298
18.7441
1.57366
-30.5063
-12.1387
6.42945
10.203
-0.295962
3.02066
13.2287
3.98426
-0.958831
0.432123
-2.50498
6.47138
-2.80654
-5.15687
-0.253637
18.236
18.1631
17.5675
17.9071
17.7859
18.1786
18.2838
18.2862
-10.8291
-10.7832
-10.8711
-10.8153
-10.6789
-10.6703
-10.7013
-10.6961
-16.3235
-11.567
0.967746
-42.6685
-49.8245
-34.945
-55.8917
4.32692
-1.46972
9.24347
-7.89668
-27.3704
-27.3217
-27.3729
-27.3271
-27.127
-27.1581
-27.1311
-27.1625
-26.8958
-15.3968
0.625039
-19.5017
-46.2735
-1.8316
-33.0511
18.6544
-6.18518
32.7642
-1.44161
-11.2559
-23.2693
-12.1448
0.124884
-18.6537
-18.7302
-23.8549
-17.0477
-13.2529
-17.2168