# vtk DataFile Version 3.0
Gravity inversion using rectangular prisms
ASCII
DATASET UNSTRUCTURED_GRID

POINTS	3667	double
0	0	0
0	0	200
0	0	400
0	0	600
0	0	800
0	0	1000
0	200	0
0	200	200
0	200	400
0	200	600
0	200	800
0	200	1000
0	400	0
0	400	200
0	400	400
0	400	600
0	400	800
0	400	1000
0	600	0
0	600	200
0	600	400
0	600	600
0	600	800
0	600	1000
0	800	0
0	800	200
0	800	400
0	800	600
0	800	800
0	800	1000
0	1000	0
0	1000	200
0	1000	400
0	1000	600
0	1000	800
0	1000	1000
0	1200	0
0	1200	200
0	1200	400
0	1200	600
0	1200	800
0	1200	1000
0	1400	0
0	1400	200
0	1400	400
0	1400	600
0	1400	800
0	1400	1000
0	1600	0
0	1600	200
0	1600	400
0	1600	600
0	1600	800
0	1600	1000
0	1800	0
0	1800	200
0	1800	400
0	1800	600
0	1800	800
0	1800	1000
0	2000	0
0	2000	200
0	2000	400
0	2000	600
0	2000	800
0	2000	1000
200	0	0
200	0	200
200	0	400
200	0	600
200	0	800
200	0	1000
200	200	0
200	200	200
200	200	400
200	200	600
200	200	800
200	200	1000
200	400	0
200	400	200
200	400	400
200	400	600
200	400	800
200	400	1000
200	600	0
200	600	200
200	600	400
200	600	600
200	600	800
200	600	1000
200	800	0
200	800	200
200	800	400
200	800	600
200	800	800
200	800	1000
200	1000	0
200	1000	200
200	1000	400
200	1000	600
200	1000	800
200	1000	1000
200	1200	0
200	1200	200
200	1200	400
200	1200	600
200	1200	800
200	1200	1000
200	1400	0
200	1400	200
200	1400	400
200	1400	600
200	1400	800
200	1400	1000
200	1600	0
200	1600	200
200	1600	400
200	1600	600
200	1600	800
200	1600	1000
200	1800	0
200	1800	200
200	1800	400
200	1800	600
200	1800	800
200	1800	1000
200	2000	0
200	2000	200
200	2000	400
200	2000	600
200	2000	800
200	2000	1000
400	0	0
400	0	200
400	0	400
400	0	600
400	0	800
400	0	1000
400	200	0
400	200	200
400	200	400
400	200	600
400	200	800
400	200	1000
400	400	0
400	400	200
400	400	300
400	400	400
400	400	600
400	400	800
400	400	1000
400	500	200
400	500	300
400	500	400
400	600	0
400	600	100
400	600	200
400	600	300
400	600	400
400	600	500
400	600	600
400	600	800
400	600	1000
400	700	0
400	700	100
400	700	200
400	700	300
400	700	400
400	700	500
400	700	600
400	800	0
400	800	100
400	800	200
400	800	300
400	800	400
400	800	500
400	800	600
400	800	800
400	800	1000
400	900	200
400	900	300
400	900	400
400	1000	0
400	1000	200
400	1000	300
400	1000	400
400	1000	600
400	1000	800
400	1000	1000
400	1200	0
400	1200	200
400	1200	400
400	1200	600
400	1200	800
400	1200	1000
400	1400	0
400	1400	200
400	1400	400
400	1400	600
400	1400	800
400	1400	1000
400	1600	0
400	1600	200
400	1600	400
400	1600	600
400	1600	800
400	1600	1000
400	1800	0
400	1800	200
400	1800	400
400	1800	600
400	1800	800
400	1800	1000
400	2000	0
400	2000	200
400	2000	400
400	2000	600
400	2000	800
400	2000	1000
500	400	200
500	400	300
500	400	400
500	500	200
500	500	300
500	500	400
500	600	0
500	600	100
500	600	200
500	600	250
500	600	300
500	600	350
500	600	400
500	600	500
500	600	600
500	650	200
500	650	250
500	650	300
500	650	350
500	650	400
500	700	0
500	700	100
500	700	200
500	700	250
500	700	300
500	700	350
500	700	400
500	700	500
500	700	600
500	750	200
500	750	250
500	750	300
500	750	350
500	750	400
500	800	0
500	800	100
500	800	200
500	800	250
500	800	300
500	800	350
500	800	400
500	800	500
500	800	600
500	900	200
500	900	300
500	900	400
500	1000	200
500	1000	300
500	1000	400
550	600	200
550	600	250
550	600	300
550	600	350
550	600	400
550	650	200
550	650	250
550	650	300
550	650	350
550	650	400
550	700	200
550	700	250
550	700	300
550	700	350
550	700	400
550	750	200
550	750	250
550	750	300
550	750	350
550	750	400
550	800	200
550	800	250
550	800	300
550	800	350
550	800	400
600	0	0
600	0	200
600	0	400
600	0	600
600	0	800
600	0	1000
600	200	0
600	200	200
600	200	400
600	200	600
600	200	800
600	200	1000
600	400	0
600	400	100
600	400	200
600	400	300
600	400	400
600	400	500
600	400	600
600	400	800
600	400	1000
600	500	0
600	500	100
600	500	200
600	500	250
600	500	300
600	500	350
600	500	400
600	500	500
600	500	600
600	550	200
600	550	250
600	550	300
600	550	350
600	550	400
600	600	0
600	600	100
600	600	150
600	600	200
600	600	250
600	600	300
600	600	350
600	600	400
600	600	450
600	600	500
600	600	600
600	600	800
600	600	1000
600	650	100
600	650	150
600	650	200
600	650	250
600	650	300
600	650	350
600	650	400
600	650	450
600	650	500
600	700	0
600	700	100
600	700	150
600	700	200
600	700	250
600	700	300
600	700	350
600	700	400
600	700	450
600	700	500
600	700	600
600	750	100
600	750	150
600	750	200
600	750	250
600	750	300
600	750	350
600	750	400
600	750	450
600	750	500
600	800	0
600	800	100
600	800	150
600	800	200
600	800	250
600	800	300
600	800	350
600	800	400
600	800	450
600	800	500
600	800	600
600	800	800
600	800	1000
600	850	200
600	850	250
600	850	300
600	850	350
600	850	400
600	900	0
600	900	100
600	900	200
600	900	250
600	900	300
600	900	350
600	900	400
600	900	500
600	900	600
600	1000	0
600	1000	100
600	1000	200
600	1000	300
600	1000	400
600	1000	500
600	1000	600
600	1000	800
600	1000	1000
600	1200	0
600	1200	200
600	1200	300
600	1200	400
600	1200	500
600	1200	600
600	1200	800
600	1200	1000
600	1300	200
600	1300	300
600	1300	400
600	1300	500
600	1300	600
600	1400	0
600	1400	100
600	1400	200
600	1400	300
600	1400	400
600	1400	500
600	1400	600
600	1400	800
600	1400	1000
600	1500	0
600	1500	100
600	1500	200
600	1500	300
600	1500	400
600	1500	500
600	1500	600
600	1600	0
600	1600	100
600	1600	200
600	1600	300
600	1600	400
600	1600	500
600	1600	600
600	1600	800
600	1600	1000
600	1800	0
600	1800	200
600	1800	400
600	1800	600
600	1800	800
600	1800	1000
600	2000	0
600	2000	200
600	2000	400
600	2000	600
600	2000	800
600	2000	1000
650	500	200
650	500	250
650	500	300
650	500	350
650	500	400
650	550	200
650	550	250
650	550	300
650	550	350
650	550	400
650	600	100
650	600	150
650	600	200
650	600	250
650	600	300
650	600	350
650	600	400
650	600	450
650	600	500
650	650	100
650	650	150
650	650	200
650	650	250
650	650	300
650	650	350
650	650	400
650	650	450
650	650	500
650	700	100
650	700	150
650	700	200
650	700	250
650	700	300
650	700	350
650	700	400
650	700	450
650	700	500
650	750	100
650	750	150
650	750	200
650	750	250
650	750	300
650	750	350
650	750	400
650	750	450
650	750	500
650	800	100
650	800	150
650	800	200
650	800	250
650	800	300
650	800	350
650	800	400
650	800	450
650	800	500
650	850	200
650	850	250
650	850	300
650	850	350
650	850	400
650	900	200
650	900	250
650	900	300
650	900	350
650	900	400
700	400	0
700	400	100
700	400	200
700	400	300
700	400	400
700	400	500
700	400	600
700	500	0
700	500	100
700	500	200
700	500	250
700	500	300
700	500	350
700	500	400
700	500	500
700	500	600
700	550	200
700	550	250
700	550	300
700	550	350
700	550	400
700	600	0
700	600	100
700	600	150
700	600	200
700	600	250
700	600	300
700	600	350
700	600	400
700	600	450
700	600	500
700	600	600
700	650	100
700	650	150
700	650	200
700	650	250
700	650	300
700	650	350
700	650	400
700	650	450
700	650	500
700	700	0
700	700	100
700	700	150
700	700	200
700	700	250
700	700	300
700	700	350
700	700	400
700	700	450
700	700	500
700	700	600
700	750	100
700	750	150
700	750	200
700	750	250
700	750	300
700	750	350
700	750	400
700	750	450
700	750	500
700	800	0
700	800	100
700	800	150
700	800	200
700	800	250
700	800	300
700	800	350
700	800	400
700	800	450
700	800	500
700	800	600
700	850	200
700	850	250
700	850	300
700	850	350
700	850	400
700	900	0
700	900	100
700	900	200
700	900	250
700	900	300
700	900	350
700	900	400
700	900	500
700	900	600
700	1000	0
700	1000	100
700	1000	200
700	1000	300
700	1000	400
700	1000	500
700	1000	600
700	1200	200
700	1200	300
700	1200	400
700	1200	500
700	1200	600
700	1300	200
700	1300	300
700	1300	400
700	1300	500
700	1300	600
700	1400	0
700	1400	100
700	1400	200
700	1400	250
700	1400	300
700	1400	400
700	1400	500
700	1400	600
700	1450	200
700	1450	250
700	1450	300
700	1500	0
700	1500	100
700	1500	200
700	1500	250
700	1500	300
700	1500	400
700	1500	500
700	1500	600
700	1600	0
700	1600	100
700	1600	200
700	1600	300
700	1600	400
700	1600	500
700	1600	600
750	500	200
750	500	250
750	500	300
750	500	350
750	500	400
750	550	200
750	550	250
750	550	300
750	550	350
750	550	400
750	600	100
750	600	150
750	600	200
750	600	250
750	600	300
750	600	350
750	600	400
750	600	450
750	600	500
750	650	100
750	650	150
750	650	200
750	650	250
750	650	300
750	650	350
750	650	400
750	650	450
750	650	500
750	700	100
750	700	150
750	700	200
750	700	250
750	700	300
750	700	350
750	700	400
750	700	450
750	700	500
750	750	100
750	750	150
750	750	200
750	750	250
750	750	300
750	750	350
750	750	400
750	750	450
750	750	500
750	800	100
750	800	150
750	800	200
750	800	250
750	800	300
750	800	350
750	800	400
750	800	450
750	800	500
750	850	200
750	850	250
750	850	300
750	850	350
750	850	400
750	900	200
750	900	250
750	900	300
750	900	350
750	900	400
750	1400	200
750	1400	250
750	1400	300
750	1450	200
750	1450	250
750	1450	300
750	1500	200
750	1500	250
750	1500	300
800	0	0
800	0	200
800	0	400
800	0	600
800	0	800
800	0	1000
800	200	0
800	200	200
800	200	400
800	200	600
800	200	800
800	200	1000
800	400	0
800	400	100
800	400	200
800	400	300
800	400	400
800	400	500
800	400	600
800	400	800
800	400	1000
800	500	0
800	500	100
800	500	200
800	500	250
800	500	300
800	500	350
800	500	400
800	500	500
800	500	600
800	550	200
800	550	250
800	550	300
800	550	350
800	550	400
800	600	0
800	600	100
800	600	150
800	600	200
800	600	250
800	600	300
800	600	350
800	600	400
800	600	450
800	600	500
800	600	600
800	600	800
800	600	1000
800	650	100
800	650	150
800	650	200
800	650	250
800	650	300
800	650	350
800	650	400
800	650	450
800	650	500
800	700	0
800	700	100
800	700	150
800	700	200
800	700	250
800	700	300
800	700	350
800	700	400
800	700	450
800	700	500
800	700	600
800	750	100
800	750	150
800	750	200
800	750	250
800	750	300
800	750	350
800	750	400
800	750	450
800	750	500
800	800	0
800	800	100
800	800	150
800	800	200
800	800	250
800	800	300
800	800	350
800	800	400
800	800	450
800	800	500
800	800	600
800	800	800
800	800	1000
800	850	200
800	850	250
800	850	300
800	850	350
800	850	400
800	900	0
800	900	100
800	900	200
800	900	250
800	900	300
800	900	350
800	900	400
800	900	500
800	900	600
[...]
CELL_DATA	2453
SCALARS model double 1
LOOKUP_TABLE table0
0.00243405
0.161917
0.0664486
-0.267344
-0.331796
0.00635512
0.105709
-0.490069
-0.277185
-0.340505
0.00541286
0.564039
-1.26431
-1.3093
-1.67801
0.00978535
0.347315
-1.21791
-0.821143
-1.01451
0.00434945
0.530308
-0.431573
-0.606564
-0.780832
0.00706473
-0.119569
-0.0746657
-0.123451
-0.179856
0.0197135
-0.472431
0.471526
0.0820537
0.103744
0.0083129
0.0793073
0.324639
0.173743
0.223985
0.00789469
-0.247683
0.128054
0.128701
0.165186
-0.00103956
0.318692
0.0548802
0.121558
0.158124
0.0104443
-0.210233
-0.0216925
0.00375067
0.00713942
0.0168557
-0.65908
-0.364905
-0.514172
-0.66415
-0.000989272
-1.83843
-1.44011
-0.659953
-0.847528
0.0171922
-1.64643
-1.19015
-0.697666
-0.896508
0.0175203
-1.68348
-0.368034
-0.529493
-0.680908
0.0199804
0.0640689
0.0193182
-0.393871
-0.512193
0.0108725
0.062442
0.100907
0.100837
0.130365
0.0106356
-0.0365933
0.143995
0.155426
0.214826
-0.000587815
0.338089
-0.265516
-0.466324
-0.600429
-0.00186549
0.183289
-0.297326
-0.477792
-0.612279
-0.00116482
-0.359503
0.0108467
0.0193786
0.0363324
-0.00405556
-2.04694
-0.159705
-0.0100668
0.0136595
0.166861
-11.4283
15.9138
13.0194
17.9677
12.8125
17.9429
15.1693
19.0627
25.4383
-0.327596
-0.422691
0.178022
-0.60761
0.158439
0.0920746
0.0304212
4.90148
-0.0169607
8.1393
5.96071
16.2487
5.76704
16.2281
17.4252
21.2902
17.4251
21.2904
17.4301
21.3006
17.4274
21.2969
25.1619
29.0502
25.1632
29.0467
25.1717
29.052
25.1699
29.0525
17.428
21.2912
17.4307
21.2924
17.4305
21.2975
17.4346
21.2989
25.164
29.0491
25.1668
29.0505
25.1663
29.052
25.1733
29.0518
27.9513
39.1217
27.9503
39.121
34.8497
39.178
34.8494
39.1774
-0.309851
-0.39879
0.0437903
4.90679
8.29836
-4.87735
5.46039
39.3546
53.514
4.76079
5.51404
13.0763
-0.342945
-0.428548
0.0474608
-2.84204
-1.20187
-0.464623
-0.597657
0.0193792
-0.455356
-2.16081
-0.497417
-0.639426
0.00302318
-0.588103
-2.23091
-0.487949
-0.614769
-0.00867635
-0.39906
-1.54368
-0.442587
-0.56708
-0.00350381
0.344251
-1.15597
-0.444174
-0.567795
-0.000225566
-0.427328
0.039216
0.0179364
0.0318652
-0.0203217
-2.20911
0.11067
0.0488264
0.0557747
-0.00311335
0.937848
-0.079526
49.7253
0.00577826
5.80172
0.149036
50.6108
35.2099
49.29
91.4666
92.5896
91.4671
92.59
91.4663
92.5894
91.467
92.5898
78.4077
90.0461
78.4084
90.0467
78.4422
90.0471
78.4425
90.0479
35.4629
49.3493
91.4659
92.5891
91.4667
92.5896
91.4656
92.5887
91.4663
92.5893
78.4398
90.0527
78.4402
90.0532
78.404
90.0816
78.4047
90.0822
65.1155
77.7819
110.024
79.5588
65.1143
77.7799
110.029
79.5579
-0.265791
-0.343034
-0.0699742
32.7327
46.0695
32.7323
46.0671
32.7591
46.0707
32.7611
46.0698
-0.093485
32.8142
44.7194
32.8535
44.7205
32.818
44.7198
32.8553
44.7204
0.237737
37.4263
49.8279
37.422
49.8334
37.4363
50.1175
37.4275
50.1055
0.102014
35.8821
50.2258
35.7684
50.2718
35.8753
50.1381
35.7799
50.1358
593.989
599.85
593.989
599.85
593.989
599.85
593.989
599.85
603.221
603.154
603.221
603.154
603.221
603.154
603.222
603.154
478.62
587.037
478.677
586.702
478.555
587.739
478.636
587.39
603.221
603.154
603.221
603.154
603.222
603.154
603.221
603.154
482.856
597.104
482.837
597.509
391.798
596.905
391.766
597.213
603.222
603.154
603.222
603.155
603.221
603.154
603.222
603.154
585.1
599.243
585.1
599.243
585.1
599.244
585.1
599.243
603.222
603.155
603.221
603.154
603.222
603.154
603.221
603.154
99.5722
111.292
99.5731
111.264
99.5698
111.283
99.5642
111.266
108.258
99.553
111.269
99.5566
111.265
99.5449
111.264
99.5506
111.262
108.258
99.5788
111.273
99.5566
111.27
99.5663
111.274
99.565
111.276
108.258
99.5533
111.268
99.5496
111.258
99.5475
111.259
99.5549
111.25
108.258
-0.248652
-0.327148
-0.124222
47.049
0.179169
0.379958
-0.0897877
45.4482
0.141551
0.69328
76.5993
91.4602
76.5984
91.4591
76.599
91.4608
76.598
91.4595
106.688
113.158
106.687
113.157
106.688
113.158
106.687
113.157
32.5352
52.6661
75.8989
92.7644
75.8981
92.7636
75.8988
92.7693
75.898
92.7685
105.913
113.159
105.912
113.158
105.946
113.159
105.945
113.158
32.5349
52.6885
105.416
108.237
85.444
107.657
105.415
108.237
85.4436
107.657
-0.218094
-0.280063
0.0382321
-3.68822
-4.11366
-4.94056
-6.34989
0.0572695
-1.21348
-1.57467
-0.429922
-1.45848
-0.405691
-1.31475
-0.417327
-1.42561
-5.05703
-6.16333
-3.74981
-4.57817
-5.05687
-6.1634
-3.74914
-4.57693
-4.93689
-6.37096
0.0411381
1.07302
0.0580369
-0.189542
0.102609
0.974596
0.180516
-1.77442
-0.188317
-1.46105
-0.375528
-0.455206
-57.2312
-57.8367
-57.2314
-57.8363
-57.2311
-57.8368
-57.2316
-57.8365
-1.42114
-1.24046
-0.99614
-1.92829
-4.08664
-1.1646
-4.08318
-1.92407
-4.08991
-1.17026
-4.08508
-4.95609
-6.36464
-0.00440834
-2.32652
-3.20836
-1.36141
-1.7462
0.00545501
0.181734
-1.8626
-1.37256
-1.76485
0.00320503
-0.413305
0.0414597
0.0760139
0.0449081
-0.0232726
-1.42759
0.329196
0.0667191
0.0665758
-0.00260342
2.40012
0.0633798
48.9564
-0.0432858
1.47228
-0.0179636
-0.811226
32.0979
45.3788
71.3903
74.3462
71.3909
74.3462
71.3847
74.3445
71.386
74.3447
84.4145
7.29412
44.5864
30.2505
36.0962
30.2519
36.0967
30.2491
36.0959
30.251
36.0965
42.8954
47.4346
42.8959
47.4351
42.8948
47.4342
42.8954
47.4346
57.2571
71.5628
60.1952
71.5746
57.2565
71.5479
60.182
71.557
-0.252772
-0.327194
-0.160039
47.3866
49.3681
47.3935
49.3679
47.3864
49.3674
47.3945
49.3672
-0.315515
47.6568
49.3189
47.659
49.3207
47.657
49.3192
47.6595
49.3203
0.0986064
-37.2383
-38.1433
-37.2376
-38.1432
-37.2383
-38.1431
-37.2374
-38.1429
0.0852091
-37.0619
-38.02
-37.0519
-38.0196
-37.0594
-38.0197
-37.0503
-38.0193
380.855
387.897
384.179
387.897
380.843
387.894
384.175
387.894
341.067
341.587
341.067
341.587
341.063
341.571
341.063
341.571
384.404
387.897
384.406
387.897
384.404
387.894
384.405
387.894
341.067
341.587
341.067
341.587
341.063
341.571
341.063
341.571
355.696
356.691
355.696
356.691
355.695
356.688
355.695
356.688
340.559
340.702
340.56
340.702
340.556
340.693
340.556
340.693
311.93
356.678
293.301
356.658
311.922
356.673
293.281
356.655
340.56
340.702
340.56
340.702
340.556
340.694
340.556
340.694
105.42
96.5965
105.41
96.5959
104.78
105.09
104.781
105.09
104.78
105.089
104.78
105.089
96.5886
104.781
105.09
104.78
105.09
104.78
105.089
104.78
105.089
96.5881
-0.251938
-0.324739
-0.279429
28.5652
0.018502
-1.54432
0.000782681
-6.63383
0.0608879
-2.96289
205.514
206.091
205.513
206.09
205.514
206.091
205.513
206.09
114.282
24.5205
32.3614
20.2877
24.9319
20.2866
24.9314
20.2863
24.9314
20.2854
24.931
29.8019
33.2961
29.8014
33.2963
29.8015
33.2958
29.8011
33.296
23.2657
32.0261
40.0699
50.7166
41.6299
50.1801
40.0315
50.7156
41.0598
50.3614
-0.242099
-0.308158
0.0496834
-9.42166
-18.9888
-9.24794
-18.9849
-13.0369
-19.407
-13.5738
-19.4054
-9.64605
-11.639
-9.53722
-11.5784
-9.56337
-11.634
-9.56878
-11.7113
-4.96245
-6.38059
0.133295
4.56235
0.27992
15.0565
0.809639
5.9558
1.18302
70.2593
8.3642
15.745
34.1708
43.4704
34.1707
43.4708
34.171
43.4708
34.1711
43.4714
51.7267
133.609
136.135
133.609
136.136
133.609
136.136
133.609
136.136
77.5724
305.873
306.065
305.873
306.065
305.873
306.065
305.873
306.065
77.6538
22.0218
184.423
186.522
184.423
186.522
184.424
186.524
184.424
186.524
22.0709
82.9779
93.4876
184.428
186.527
184.428
186.527
184.429
186.528
184.429
186.528
93.4822
113.561
-4.60966
-5.32773
-4.59237
-5.29918
-4.60191
-5.31265
-4.59977
-5.29641
-6.38685
0.360298
0.843318
0.347046
-1.15478
1.14977
77.27
0.846173
8.54943
257.986
256.901
257.986
256.901
257.986
256.97
257.985
256.97
54.0783
4.78539
6.71728
247.666
255.081
247.665
255.08
247.665
255.082
247.664
255.08
77.3434
4.00702
6.12061
4.00682
6.12051
4.00822
6.11928
4.00789
6.1191
7.4861
67.0005
82.5076
61.734
174.644
177.828
174.644
177.828
174.645
177.829
174.645
177.829
93.0747
113.344
84.2248
174.645
177.831
174.645
177.831
174.638
177.833
174.638
177.833
-4.58894
-5.30449
-4.58854
-5.30889
-4.60607
-5.32261
-4.61361
-5.31817
-6.37308
0.0984327
-0.326047
-2.49834
-14.1697
-3.27727
-0.319725
-2.50648
-5.20113
-4.53877
-3.11377
-3.64784
-3.08057
-3.53572
-3.10205
-3.66747
-3.106
-3.53125
-4.49933
-5.75803
0.0337752
-1.88838
-3.66931
-4.60575
-5.92173
-9.53166e-05
0.0822143
0.307151
0.108916
0.139727
0.00617951
0.805145
0.252442
0.176195
0.258276
-0.0132167
-9.754
-13.6515
-10.3109
-13.656
-9.76555
-13.6409
-11.2084
-13.6663
-16.8132
-0.0209462
0.015392
0.0818237
0.858253
0.0691332
2.34136
0.0203066
5.7064
-0.0938305
11.9002
-84.8364
-86.6818
-84.8368
-86.6816
-84.8528
-86.6882
-84.8535
-86.6883
-97.0565
-97.2144
-97.0569
-97.2138
-97.0606
-97.2181
-97.061
-97.2175
-84.8359
-86.6805
-84.8361
-86.6779
-84.8536
-86.6875
-84.855
-86.6871
-97.0569
-97.2132
-97.057
-97.2128
-97.0612
-97.217
-97.0612
-97.2166
-84.861
-86.6972
-84.8609
-86.697
-84.8612
-86.7004
-84.8612
-86.6991
-97.3897
-98.9352
-97.3902
-98.9349
-97.3918
-98.9388
-97.3922
-98.9385
-84.8597
-86.6969
-84.8597
-86.7009
-84.8601
-86.6992
-84.86
-86.7049
-97.3905
-98.9347
-97.3904
-98.9346
-97.3926
-98.9383
-97.3927
-98.9382
-114.349
-118.248
-114.35
-118.248
-115.551
-118.255
-115.551
-118.255
-1.70427
-2.19135
0.01226
-13.924
-18.1737
3.02236
-17.761
-13.4625
-18.799
2.75722
-17.7782
-22.8678
-27.5582
-22.8633
-27.5552
-22.8956
-27.5811
-22.8554
-27.5762
-5.5297
-7.11407
0.0402203
-10.2127
-17.0783
-17.148
-23.8474
-10.3547
-16.5656
-17.0617
-22.0818
-11.9188
-14.5295
-11.9404
-13.9534
-15.3397
-13.9531
-15.3394
-13.9529
-15.3353
-13.9526
-15.3351
-11.9384
-14.5298
-11.9548
-13.9422
-15.2854
-13.9419
-15.2851
-13.9344
-15.2791
-13.9341
-15.2788
-5.09745
-5.89972
-5.09316
-5.89624
-5.09282
-5.8991
-5.08972
-5.89545
-7.15191
1.37544
7.11612
2.61548
94.7156
1.35517
15.1487
2.16327
113.466
125.513
175.49
201.164
213.092
124.218
174.059
195.904
213.1
256.359
289.304
256.359
289.302
256.367
289.303
256.368
289.302
311.688
340.716
311.687
340.715
316.226
340.909
316.226
340.909
273.392
305.833
334.17
305.844
334.155
305.761
334.188
305.822
334.206
256.766
290.583
256.766
290.583
256.77
290.581
256.77
290.581
314.922
344.306
314.922
344.306
314.903
344.263
314.903
344.263
273.36
305.817
334.401
305.995
334.522
306.089
334.431
305.963
334.518
-4.46054
-4.82594
-4.48611
-4.83123
-4.46259
-4.83266
-4.48563
-4.83746
-5.38178
-4.479
-4.83259
-4.47115
-4.82554
-4.48364
-4.83323
-4.47343
-4.83263
-5.37932
-4.47751
-4.83869
-4.49081
-4.83886
-4.48411
-4.84115
-4.49168
-4.83872
-5.38605
-4.49566
-4.83547
-4.4752
-4.83292
-4.48835
-4.83973
-4.48913
-4.84894
-5.38014
-6.4582
2.53518
87.8773
1.27366
-4.41732
2.00956
107.78
1.14148
-6.63586
238.142
213.065
241.949
244.09
241.949
244.09
241.949
244.09
241.949
244.09
215.181
216.78
215.18
216.779
215.181
216.78
215.18
216.78
237.044
213.019
241.948
244.09
241.947
244.09
241.947
244.09
241.947
244.09
213.434
273.058
305.65
333.798
305.795
335.985
305.711
333.987
306.087
335.588
272.38
277.993
272.38
277.993
272.379
277.994
272.379
277.994
302.674
336.92
302.673
336.92
302.676
336.926
302.673
336.93
272.227
305.751
335.222
305.968
335.39
305.713
334.88
306.042
335.518
258.794
278.001
258.794
278
258.66
278.002
258.66
278.002
302.597
332.234
302.595
332.002
302.029
331.102
301.289
331.026
-4.48165
-4.82718
-4.48686
-4.83349
-4.47454
-4.83452
-4.48587
-4.8313
-5.36511
-4.46804
-4.82414
-4.44708
-4.82818
-4.47949
-4.8212
-4.45324
-4.82403
-5.36364
-4.49067
-4.84799
-4.47723
-4.83889
-4.49003
-4.8452
-4.48133
-4.8396
-5.36937
-4.46328
-4.82708
-4.46572
-4.83637
-4.47595
-4.83737
-4.45909
-4.82497
-5.36672
-6.43244
-0.0519199
8.64885
-0.0142851
1.24275
-0.0483227
-6.88437
-0.0525161
-0.113927
-135.514
-136.824
-135.514
-136.824
-135.514
-136.824
-135.514
-136.824
-5.63394
-5.15572
-5.31439
-25.1557
-29.3483
-25.156
-29.3493
-25.1559
-29.3487
-25.1563
-29.3497
-28.7325
-17.2957
-24.6029
-2.88073
-3.30313
-3.62228
-3.3153
-3.61737
-3.30423
-3.61901
-3.31155
-3.61855
-2.83624
-3.46707
-2.86649
-3.31914
-3.62884
-3.30814
-3.61391
-3.29801
-3.61234
-3.30181
-3.61158
-2.86869
-3.45075
-4.11473
-4.73184
-4.07809
-4.68014
-4.07027
-4.66992
-4.04196
-4.68376
-5.5845
0.0322426
-3.38759
-3.14556
-4.35611
-5.59521
-0.000863519
0.483022
0.131618
0.11656
0.203185
-0.014084
-0.0751393
0.180285
0.180517
0.260803
-0.0501889
-2.27512
0.259094
-54.4316
0.0867995
-13.2032
-0.104644
-52.9752
-26.1526
-37.6004
-90.8951
-92.5988
-90.8954
-92.5993
-90.8954
-92.5986
-90.8957
-92.5992
-88.437
-90.115
-88.4376
-90.1154
-88.4371
-90.1133
-88.4377
-90.1137
-27.0915
-37.8893
-90.8956
-92.5978
-90.896
-92.5983
-90.8955
-92.5977
-90.8957
-92.5981
-88.4371
-90.1146
-88.4377
-90.1152
-88.4369
-90.2456
-88.4374
-90.2462
-48.8396
-60.0336
-63.3033
-60.0361
-48.8452
-60.0333
-63.3029
-60.0362
-0.273081
-0.276896
0.0500895
-30.5733
-45.1318
-30.4504
-44.8417
-30.5733
-45.1335
-30.4547
-44.844
0.0223814
-30.1164
-41.7499
-30.1187
-41.75
-30.121
-41.751
-30.1195
-41.7507
-0.426224
-42.4197
-58.0651
-42.3456
-58.0636
-42.4188
-58.1405
-42.3219
-58.0591
-0.378616
-38.7977
-58.0566
-38.8003
-58.0655
-38.7689
-58.0559
-38.7724
-58.0655
-452.58
-566.332
-547.136
-566.333
-453.737
-566.342
-547.153
-566.343
-551.948
-552.1
-551.949
-552.101
-551.947
-552.1
-551.947
-552.101
-547.139
-566.334
-541.105
-566.334
-547.144
-566.343
-545.122
-566.342
-551.949
-552.101
-551.948
-552.101
-551.948
-552.102
-551.948
-552.102
-550.37
-566.343
-549.768
-566.343
-550.37
-566.343
-549.796
-566.343
-551.946
-552.1
-551.947
-552.101
-551.946
-552.1
-551.946
-552.101
-557.073
-566.343
-557.074
-566.343
-557.125
-566.343
-557.126
-566.343
-551.947
-552.102
-551.947
-552.102
-551.947
-552.101
-551.947
-552.102
-114.479
-116.253
-114.479
-116.253
-114.479
-116.253
-114.479
-116.253
-132.229
-114.479
-116.254
-114.479
-116.254
-114.479
-116.254
-114.478
-116.254
-132.229
-114.478
-116.253
-114.478
-116.253
-114.478
-116.253
-114.478
-116.253
-132.23
-114.478
-116.253
-114.478
-116.254
-114.478
-116.253
-114.477
-116.254
-132.23
-1.70866
-2.19556
0.0660073
-49.9303
0.020846
2.17666
-0.172876
-57.2227
0.0646408
-4.64628
-56.0203
-68.3974
-56.0128
-68.3879
-56.1402
-68.5937
-56.1083
-68.5895
-80.8579
-92.5566
-80.8521
-92.5559
-81.3651
-92.5657
-81.36
-92.5589
-43.2992
-60.8502
-56.0415
-68.6026
-55.9887
-68.6098
-56.186
-68.4822
-55.985
-68.5004
-81.3582
-92.6093
-81.341
-92.6008
-80.8178
-93.6526
-80.9046
-93.5762
-43.1567
-60.3955
-110.032
-123.167
-77.6647
-113.317
-110.038
-123.166
-77.704
-113.316
-5.51967
-7.08697
0.106616
-19.3477
-22.2189
-20.4511
-22.2119
-19.7202
-22.1628
-20.4266
-22.131
-4.05546
-4.39409
-3.97
-3.85461
-4.23734
-3.84876
-4.22086
-3.84077
-4.20608
-3.83929
-4.20539
-4.08547
-4.38593
-3.21859
-3.59603
-3.21756
-3.59511
-3.21908
-3.59656
-3.21786
-3.59532
-3.83907
-4.20216
-3.84002
-4.20152
-3.83412
-4.206
-3.83224
-4.19838
-4.87608
-5.84414
-4.86354
-5.84323
-4.87185
-5.8434
-4.8613
-5.84236
-7.05449
1.48717
8.15089
2.16139
110.35
1.28418
10.5641
1.66835
113.405
122.301
200.479
188.127
210.522
123.906
231.311
232.875
231.311
232.875
231.311
232.875
231.311
232.875
188.073
215.437
270.287
314.617
344.084
314.617
344.083
314.548
343.955
314.549
343.954
271.014
314.455
334.057
314.412
333.925
314.464
334
314.388
333.893
324.594
326.468
324.594
326.469
324.594
326.468
324.594
326.468
320.742
346.435
320.742
346.435
320.742
346.439
320.742
346.439
271.246
314.462
334.635
314.158
333.929
314.46
334.624
314.126
333.803
-4.48318
-4.84416
-4.48305
-4.84405
-4.47795
-4.83829
-4.4784
-4.83868
-5.37808
-4.48618
-4.84191
-4.48588
-4.841
-4.48479
-4.84405
-4.47158
-4.83111
-5.36635
-4.47191
-4.83766
-4.47016
-4.8295
-4.44893
-4.81713
-4.45606
-4.81596
-5.36704
-4.47347
-4.83073
-4.47448
-4.83007
-4.45979
-4.82557
-4.45498
-4.82976
-5.36486
-6.4492
2.0468
110.368
1.21828
-1.76628
1.63292
112.082
1.09782
15.8946
188.827
210.685
131.303
207.327
189.037
215.618
131.68
220.701
222.316
220.701
222.316
220.701
222.316
220.701
222.316
271.114
305.436
334.283
305.378
334.674
304.211
333.152
304.496
333.833
267.313
302.191
330.863
301.171
330.437
301.975
330.743
301.12
330.405
271.739
303.215
332.277
303.64
332.865
302.979
332.232
303.607
332.829
274.147
277.209
274.147
277.209
274.147
277.209
274.147
277.209
303.012
333.069
303.014
333.065
303.017
333.04
303.017
333.05
-4.48713
-4.83992
-4.48285
-4.84454
-4.46953
-4.82508
-4.47041
-4.81881
-5.36536
-4.48131
-4.84101
-4.45692
-4.82421
-4.47025
-4.81953
-4.46441
-4.82077
-5.35921
-4.45688
-4.81502
-4.4604
-4.81278
-4.45541
-4.81173
-4.46356
-4.8103
-5.35743
-4.46309
-4.81592
-4.45686
-4.81119
-4.46419
-4.81185
-4.45593
-4.8056
-5.35432
-6.43669
-0.0793042
-30.8741
-28.8748
-17.3935
-24.3339
-29.874
-28.9026
-9.06689
-21.7438
-2.85014
-3.31121
-3.59933
-3.29561
-3.58864
-3.31915
-3.59045
-3.2979
-3.59719
-2.84443
-3.46197
-2.84999
-3.32066
-3.58281
-3.31945
-3.58439
-3.31095
-3.57214
-3.31299
-3.57291
-2.84849
-3.46444
-4.0622
-4.65882
-4.03461
-4.65884
-4.02603
-4.65403
-4.02012
-4.63291
-5.56929
0.0284305
-2.51794
-3.16305
-4.35068
-5.59116
0.0106432
0.269245
0.901179
1.02956
1.3181
-0.00334039
0.22776
0.482876
0.591608
0.746608
0.107929
-10.7002
-0.0122659
-55.2299
-0.00282212
-2.90149
-0.341196
-2.97144
-26.9642
-37.8414
-91.2905
-84.8119
-4.8753
-6.92228
-4.39048
-5.42553
-4.40434
-5.42499
-4.38932
-5.42527
-4.40356
-5.42463
-6.42779
-7.75621
-6.43164
-7.688
-6.42742
-7.75559
-6.43099
-7.68741
-48.1689
-59.5451
-55.4149
-59.5692
-40.2574
-59.5498
-40.261
-59.5621
-0.310845
-0.401952
-0.0754032
-65.6188
0.243352
-92.4506
-94.0641
-92.4511
-94.0642
-92.4507
-94.0643
-92.4511
-94.0643
-0.61172
34.9312
37.6398
34.9185
37.6395
34.9321
37.6398
34.9184
37.6394
-0.554212
34.9163
37.6314
34.9918
37.6313
34.9141
37.6312
34.9916
37.6312
-291.968
-295.294
-291.968
-295.295
-291.967
-295.294
-291.967
-295.295
-349.447
-350.848
-349.447
-350.848
-349.445
-350.846
-349.445
-350.846
-315.508
-318.55
-315.509
-318.55
-315.377
-318.543
-315.377
-318.543
-349.448
-350.848
-349.448
-350.848
-349.446
-350.846
-349.446
-350.846
-259.772
-317.058
-259.772
-317.147
-259.599
-317.047
-259.6
-317.146
-293.119
-293.184
-293.12
-293.185
-293.116
-293.181
-293.117
-293.181
-259.734
-317.413
-259.735
-317.412
-259.725
-317.41
-259.727
-317.409
-293.119
-293.185
-293.119
-293.185
-293.116
-293.181
-293.116
-293.181
-110.448
-132.939
-110.448
-132.939
-110.139
-132.941
-110.139
-132.941
-1.7728
-2.28348
-0.0835215
-47.3416
0.0866449
-8.82353
-0.50505
-0.143915
0.0171155
-1.99532
-62.1782
-87.0293
-31.3744
-43.6457
-11.5652
-14.3119
-16.5493
-14.2367
-16.4829
-14.3108
-16.5487
-14.2307
-16.4803
-3.01653
-15.3295
-24.7068
-30.1591
-24.7174
-30.1391
-24.5582
-30.1584
-24.5094
-30.0561
-5.55317
-7.07369
0.022842
-13.5461
-15.0518
-12.4519
-7.39714
-3.04976
-3.80841
-2.52849
-3.66648
-4.15739
-4.44382
-4.15563
-4.29041
-4.18594
-4.43935
-4.18515
-4.29159
-5.48992
-7.05512
0.666922
1.37461
0.858034
80.7722
0.305112
2.10157
0.179751
22.1022
132.215
134.036
132.216
134.038
132.214
134.036
132.215
134.038
183.999
185.843
183.999
185.844
183.998
185.842
183.998
185.843
251.897
253.048
251.905
253.052
251.897
253.048
251.905
253.053
191.849
8.51411
11.7644
55.3109
23.1019
57.7456
59.4236
57.7457
59.4237
57.7446
59.4199
57.7446
59.42
56.6881
46.5002
56.7075
-0.665141
-3.79282
-0.780544
-3.79711
-4.63183
-5.3686
-4.62873
-5.35406
-4.64188
-5.35552
-4.63436
-5.33118
-6.41282
0.894381
80.5081
0.460369
19.6235
0.22737
3.58161
0.132831
4.85167
262.634
263.035
262.634
263.035
262.634
263.035
262.634
263.035
190.329
42.9469
60.1728
189.273
190.547
189.274
190.548
189.275
190.547
189.275
190.548
22.8212
9.40789
19.6292
45.5505
55.5911
45.5459
55.5866
-2.39866
-3.92461
-2.41428
-3.94026
-4.49254
-5.14333
-4.49153
-5.14251
-4.49082
-5.13937
-4.49074
-5.1381
-6.16117
0.0349985
-2.50407
-2.73932
-3.31758
-2.73315
-3.30719
-2.75566
-3.32104
-2.75633
-3.2901
-4.1092
-5.20664
0.0104836
-1.6873
-2.99852
-4.09918
-5.20552
0.00909473
-0.101508
1.43768
0.59136
0.712668
-0.00855698
0.849162
0.555301
0.576118
0.703386
-0.0234807
6.9845
1.20092
6.31497
2.11255
0.746083
0.553688
5.66813
1.2353
0.108656
0.555383
0.758689
-0.181785
8.1765
-0.126305
6.02334
-0.0675141
2.23679
-0.0189245
1.66792
32.3124
39.3307
32.3116
39.3311