# vtk DataFile Version 3.0
Gravity effects
ASCII
DATASET UNSTRUCTURED_GRID

POINTS	1681	double
0	0	-0.1
50	0	-0.1
100	0	-0.1
150	0	-0.1
200	0	-0.1
250	0	-0.1
300	0	-0.1
350	0	-0.1
400	0	-0.1
450	0	-0.1
500	0	-0.1
550	0	-0.1
600	0	-0.1
650	0	-0.1
700	0	-0.1
750	0	-0.1
800	0	-0.1
850	0	-0.1
900	0	-0.1
950	0	-0.1
1000	0	-0.1
1050	0	-0.1
1100	0	-0.1
1150	0	-0.1
1200	0	-0.1
1250	0	-0.1
1300	0	-0.1
1350	0	-0.1
1400	0	-0.1
1450	0	-0.1
1500	0	-0.1
1550	0	-0.1
1600	0	-0.1
1650	0	-0.1
1700	0	-0.1
1750	0	-0.1
1800	0	-0.1
1850	0	-0.1
1900	0	-0.1
1950	0	-0.1
2000	0	-0.1
0	50	-0.1
50	50	-0.1
100	50	-0.1
150	50	-0.1
200	50	-0.1
250	50	-0.1
300	50	-0.1
350	50	-0.1
400	50	-0.1
450	50	-0.1
500	50	-0.1
550	50	-0.1
600	50	-0.1
650	50	-0.1
700	50	-0.1
750	50	-0.1
800	50	-0.1
850	50	-0.1
900	50	-0.1
950	50	-0.1
1000	50	-0.1
1050	50	-0.1
1100	50	-0.1
1150	50	-0.1
1200	50	-0.1
1250	50	-0.1
1300	50	-0.1
1350	50	-0.1
1400	50	-0.1
1450	50	-0.1
1500	50	-0.1
1550	50	-0.1
1600	50	-0.1
1650	50	-0.1
1700	50	-0.1
1750	50	-0.1
1800	50	-0.1
1850	50	-0.1
1900	50	-0.1
1950	50	-0.1
2000	50	-0.1
0	100	-0.1
50	100	-0.1
100	100	-0.1
150	100	-0.1
200	100	-0.1
250	100	-0.1
300	100	-0.1
350	100	-0.1
400	100	-0.1
450	100	-0.1
500	100	-0.1
550	100	-0.1
600	100	-0.1
650	100	-0.1
700	100	-0.1
750	100	-0.1
800	100	-0.1
850	100	-0.1
900	100	-0.1
950	100	-0.1
1000	100	-0.1
1050	100	-0.1
1100	100	-0.1
1150	100	-0.1
1200	100	-0.1
1250	100	-0.1
1300	100	-0.1
1350	100	-0.1
1400	100	-0.1
1450	100	-0.1
1500	100	-0.1
1550	100	-0.1
1600	100	-0.1
1650	100	-0.1
1700	100	-0.1
1750	100	-0.1
1800	100	-0.1
1850	100	-0.1
1900	100	-0.1
1950	100	-0.1
2000	100	-0.1
0	150	-0.1
50	150	-0.1
100	150	-0.1
150	150	-0.1
200	150	-0.1
250	150	-0.1
300	150	-0.1
350	150	-0.1
400	150	-0.1
450	150	-0.1
500	150	-0.1
550	150	-0.1
600	150	-0.1
650	150	-0.1
700	150	-0.1
750	150	-0.1
800	150	-0.1
850	150	-0.1
900	150	-0.1
950	150	-0.1
1000	150	-0.1
1050	150	-0.1
1100	150	-0.1
1150	150	-0.1
1200	150	-0.1
1250	150	-0.1
1300	150	-0.1
1350	150	-0.1
1400	150	-0.1
1450	150	-0.1
1500	150	-0.1
1550	150	-0.1
1600	150	-0.1
1650	150	-0.1
1700	150	-0.1
1750	150	-0.1
1800	150	-0.1
1850	150	-0.1
1900	150	-0.1
1950	150	-0.1
2000	150	-0.1
0	200	-0.1
50	200	-0.1
100	200	-0.1
150	200	-0.1
200	200	-0.1
250	200	-0.1
300	200	-0.1
350	200	-0.1
400	200	-0.1
450	200	-0.1
500	200	-0.1
550	200	-0.1
600	200	-0.1
650	200	-0.1
700	200	-0.1
750	200	-0.1
800	200	-0.1
850	200	-0.1
900	200	-0.1
950	200	-0.1
1000	200	-0.1
1050	200	-0.1
1100	200	-0.1
1150	200	-0.1
1200	200	-0.1
1250	200	-0.1
1300	200	-0.1
1350	200	-0.1
1400	200	-0.1
1450	200	-0.1
1500	200	-0.1
1550	200	-0.1
1600	200	-0.1
1650	200	-0.1
1700	200	-0.1
1750	200	-0.1
1800	200	-0.1
1850	200	-0.1
1900	200	-0.1
1950	200	-0.1
2000	200	-0.1
0	250	-0.1
50	250	-0.1
100	250	-0.1
150	250	-0.1
200	250	-0.1
250	250	-0.1
300	250	-0.1
350	250	-0.1
400	250	-0.1
450	250	-0.1
500	250	-0.1
550	250	-0.1
600	250	-0.1
650	250	-0.1
700	250	-0.1
750	250	-0.1
800	250	-0.1
850	250	-0.1
900	250	-0.1
950	250	-0.1
1000	250	-0.1
1050	250	-0.1
1100	250	-0.1
1150	250	-0.1
1200	250	-0.1
1250	250	-0.1
1300	250	-0.1
1350	250	-0.1
1400	250	-0.1
1450	250	-0.1
1500	250	-0.1
1550	250	-0.1
1600	250	-0.1
1650	250	-0.1
1700	250	-0.1
1750	250	-0.1
1800	250	-0.1
1850	250	-0.1
1900	250	-0.1
1950	250	-0.1
2000	250	-0.1
0	300	-0.1
50	300	-0.1
100	300	-0.1
150	300	-0.1
200	300	-0.1
250	300	-0.1
300	300	-0.1
350	300	-0.1
400	300	-0.1
450	300	-0.1
500	300	-0.1
550	300	-0.1
600	300	-0.1
650	300	-0.1
700	300	-0.1
750	300	-0.1
800	300	-0.1
850	300	-0.1
900	300	-0.1
950	300	-0.1
1000	300	-0.1
1050	300	-0.1
1100	300	-0.1
1150	300	-0.1
1200	300	-0.1
1250	300	-0.1
1300	300	-0.1
1350	300	-0.1
1400	300	-0.1
1450	300	-0.1
1500	300	-0.1
1550	300	-0.1
1600	300	-0.1
1650	300	-0.1
1700	300	-0.1
1750	300	-0.1
1800	300	-0.1
1850	300	-0.1
1900	300	-0.1
1950	300	-0.1
2000	300	-0.1
0	350	-0.1
50	350	-0.1
100	350	-0.1
150	350	-0.1
200	350	-0.1
250	350	-0.1
300	350	-0.1
350	350	-0.1
400	350	-0.1
450	350	-0.1
500	350	-0.1
550	350	-0.1
600	350	-0.1
650	350	-0.1
700	350	-0.1
750	350	-0.1
800	350	-0.1
850	350	-0.1
900	350	-0.1
950	350	-0.1
1000	350	-0.1
1050	350	-0.1
1100	350	-0.1
1150	350	-0.1
1200	350	-0.1
1250	350	-0.1
1300	350	-0.1
1350	350	-0.1
1400	350	-0.1
1450	350	-0.1
1500	350	-0.1
1550	350	-0.1
1600	350	-0.1
1650	350	-0.1
1700	350	-0.1
1750	350	-0.1
1800	350	-0.1
1850	350	-0.1
1900	350	-0.1
1950	350	-0.1
2000	350	-0.1
0	400	-0.1
50	400	-0.1
100	400	-0.1
150	400	-0.1
200	400	-0.1
250	400	-0.1
300	400	-0.1
350	400	-0.1
400	400	-0.1
450	400	-0.1
500	400	-0.1
550	400	-0.1
600	400	-0.1
650	400	-0.1
700	400	-0.1
750	400	-0.1
800	400	-0.1
850	400	-0.1
900	400	-0.1
950	400	-0.1
1000	400	-0.1
1050	400	-0.1
1100	400	-0.1
1150	400	-0.1
1200	400	-0.1
1250	400	-0.1
1300	400	-0.1
1350	400	-0.1
1400	400	-0.1
1450	400	-0.1
1500	400	-0.1
1550	400	-0.1
1600	400	-0.1
1650	400	-0.1
1700	400	-0.1
1750	400	-0.1
1800	400	-0.1
1850	400	-0.1
1900	400	-0.1
1950	400	-0.1
2000	400	-0.1
0	450	-0.1
50	450	-0.1
100	450	-0.1
150	450	-0.1
200	450	-0.1
250	450	-0.1
300	450	-0.1
350	450	-0.1
400	450	-0.1
450	450	-0.1
500	450	-0.1
550	450	-0.1
600	450	-0.1
650	450	-0.1
700	450	-0.1
750	450	-0.1
800	450	-0.1
850	450	-0.1
900	450	-0.1
950	450	-0.1
1000	450	-0.1
1050	450	-0.1
1100	450	-0.1
1150	450	-0.1
1200	450	-0.1
1250	450	-0.1
1300	450	-0.1
1350	450	-0.1
1400	450	-0.1
1450	450	-0.1
1500	450	-0.1
1550	450	-0.1
1600	450	-0.1
1650	450	-0.1
1700	450	-0.1
1750	450	-0.1
1800	450	-0.1
1850	450	-0.1
1900	450	-0.1
1950	450	-0.1
2000	450	-0.1
0	500	-0.1
50	500	-0.1
100	500	-0.1
150	500	-0.1
200	500	-0.1
250	500	-0.1
300	500	-0.1
350	500	-0.1
400	500	-0.1
450	500	-0.1
500	500	-0.1
550	500	-0.1
600	500	-0.1
650	500	-0.1
700	500	-0.1
750	500	-0.1
800	500	-0.1
850	500	-0.1
900	500	-0.1
950	500	-0.1
1000	500	-0.1
1050	500	-0.1
1100	500	-0.1
1150	500	-0.1
1200	500	-0.1
1250	500	-0.1
1300	500	-0.1
1350	500	-0.1
1400	500	-0.1
1450	500	-0.1
1500	500	-0.1
1550	500	-0.1
1600	500	-0.1
1650	500	-0.1
1700	500	-0.1
1750	500	-0.1
1800	500	-0.1
1850	500	-0.1
1900	500	-0.1
1950	500	-0.1
2000	500	-0.1
0	550	-0.1
50	550	-0.1
100	550	-0.1
150	550	-0.1
200	550	-0.1
250	550	-0.1
300	550	-0.1
350	550	-0.1
400	550	-0.1
450	550	-0.1
500	550	-0.1
550	550	-0.1
600	550	-0.1
650	550	-0.1
700	550	-0.1
750	550	-0.1
800	550	-0.1
850	550	-0.1
900	550	-0.1
950	550	-0.1
1000	550	-0.1
1050	550	-0.1
1100	550	-0.1
1150	550	-0.1
1200	550	-0.1
1250	550	-0.1
1300	550	-0.1
1350	550	-0.1
1400	550	-0.1
1450	550	-0.1
1500	550	-0.1
1550	550	-0.1
1600	550	-0.1
1650	550	-0.1
1700	550	-0.1
1750	550	-0.1
1800	550	-0.1
1850	550	-0.1
1900	550	-0.1
1950	550	-0.1
2000	550	-0.1
0	600	-0.1
50	600	-0.1
100	600	-0.1
150	600	-0.1
200	600	-0.1
250	600	-0.1
300	600	-0.1
350	600	-0.1
400	600	-0.1
450	600	-0.1
500	600	-0.1
550	600	-0.1
600	600	-0.1
650	600	-0.1
700	600	-0.1
750	600	-0.1
800	600	-0.1
850	600	-0.1
900	600	-0.1
950	600	-0.1
1000	600	-0.1
1050	600	-0.1
1100	600	-0.1
1150	600	-0.1
1200	600	-0.1
1250	600	-0.1
1300	600	-0.1
1350	600	-0.1
1400	600	-0.1
1450	600	-0.1
1500	600	-0.1
1550	600	-0.1
1600	600	-0.1
1650	600	-0.1
1700	600	-0.1
1750	600	-0.1
1800	600	-0.1
1850	600	-0.1
1900	600	-0.1
1950	600	-0.1
2000	600	-0.1
0	650	-0.1
50	650	-0.1
100	650	-0.1
150	650	-0.1
200	650	-0.1
250	650	-0.1
300	650	-0.1
350	650	-0.1
400	650	-0.1
450	650	-0.1
500	650	-0.1
550	650	-0.1
600	650	-0.1
650	650	-0.1
700	650	-0.1
750	650	-0.1
800	650	-0.1
850	650	-0.1
900	650	-0.1
950	650	-0.1
1000	650	-0.1
1050	650	-0.1
1100	650	-0.1
1150	650	-0.1
1200	650	-0.1
1250	650	-0.1
1300	650	-0.1
1350	650	-0.1
1400	650	-0.1
1450	650	-0.1
1500	650	-0.1
1550	650	-0.1
1600	650	-0.1
1650	650	-0.1
1700	650	-0.1
1750	650	-0.1
1800	650	-0.1
1850	650	-0.1
1900	650	-0.1
1950	650	-0.1
2000	650	-0.1
0	700	-0.1
50	700	-0.1
100	700	-0.1
150	700	-0.1
200	700	-0.1
250	700	-0.1
300	700	-0.1
350	700	-0.1
400	700	-0.1
450	700	-0.1
500	700	-0.1
550	700	-0.1
600	700	-0.1
650	700	-0.1
700	700	-0.1
750	700	-0.1
800	700	-0.1
850	700	-0.1
900	700	-0.1
950	700	-0.1
1000	700	-0.1
1050	700	-0.1
1100	700	-0.1
1150	700	-0.1
1200	700	-0.1
1250	700	-0.1
1300	700	-0.1
1350	700	-0.1
1400	700	-0.1
1450	700	-0.1
1500	700	-0.1
1550	700	-0.1
1600	700	-0.1
1650	700	-0.1
1700	700	-0.1
1750	700	-0.1
1800	700	-0.1
1850	700	-0.1
1900	700	-0.1
1950	700	-0.1
2000	700	-0.1
0	750	-0.1
50	750	-0.1
100	750	-0.1
150	750	-0.1
200	750	-0.1
250	750	-0.1
300	750	-0.1
350	750	-0.1
400	750	-0.1
450	750	-0.1
500	750	-0.1
550	750	-0.1
600	750	-0.1
650	750	-0.1
700	750	-0.1
750	750	-0.1
800	750	-0.1
850	750	-0.1
900	750	-0.1
950	750	-0.1
1000	750	-0.1
1050	750	-0.1
1100	750	-0.1
1150	750	-0.1
1200	750	-0.1
1250	750	-0.1
1300	750	-0.1
1350	750	-0.1
1400	750	-0.1
1450	750	-0.1
1500	750	-0.1
1550	750	-0.1
1600	750	-0.1
1650	750	-0.1
1700	750	-0.1
1750	750	-0.1
1800	750	-0.1
1850	750	-0.1
1900	750	-0.1
1950	750	-0.1
2000	750	-0.1
0	800	-0.1
50	800	-0.1
100	800	-0.1
150	800	-0.1
200	800	-0.1
250	800	-0.1
300	800	-0.1
350	800	-0.1
400	800	-0.1
450	800	-0.1
500	800	-0.1
550	800	-0.1
600	800	-0.1
650	800	-0.1
700	800	-0.1
750	800	-0.1
800	800	-0.1
850	800	-0.1
900	800	-0.1
950	800	-0.1
1000	800	-0.1
1050	800	-0.1
1100	800	-0.1
1150	800	-0.1
1200	800	-0.1
1250	800	-0.1
1300	800	-0.1
1350	800	-0.1
1400	800	-0.1
1450	800	-0.1
1500	800	-0.1
1550	800	-0.1
1600	800	-0.1
1650	800	-0.1
1700	800	-0.1
1750	800	-0.1
1800	800	-0.1
1850	800	-0.1
1900	800	-0.1
1950	800	-0.1
2000	800	-0.1
0	850	-0.1
50	850	-0.1
100	850	-0.1
150	850	-0.1
200	850	-0.1
250	850	-0.1
300	850	-0.1
350	850	-0.1
400	850	-0.1
450	850	-0.1
500	850	-0.1
550	850	-0.1
600	850	-0.1
650	850	-0.1
700	850	-0.1
750	850	-0.1
800	850	-0.1
850	850	-0.1
900	850	-0.1
950	850	-0.1
1000	850	-0.1
1050	850	-0.1
1100	850	-0.1
1150	850	-0.1
1200	850	-0.1
1250	850	-0.1
1300	850	-0.1
1350	850	-0.1
1400	850	-0.1
1450	850	-0.1
1500	850	-0.1
1550	850	-0.1
1600	850	-0.1
1650	850	-0.1
1700	850	-0.1
1750	850	-0.1
1800	850	-0.1
1850	850	-0.1
1900	850	-0.1
1950	850	-0.1
2000	850	-0.1
0	900	-0.1
50	900	-0.1
100	900	-0.1
150	900	-0.1
200	900	-0.1
250	900	-0.1
300	900	-0.1
350	900	-0.1
[...]
CELL_DATA	1681
SCALARS g_z double 1
LOOKUP_TABLE table0
0.0230454
0.025047
0.0272426
0.0296125
0.0320479
0.0346299
0.0373982
0.0401174
0.0424506
0.0445059
0.0463777
0.0476984
0.0482394
0.0479043
0.0466524
0.04443
0.0413604
0.037271
0.0320737
0.0261351
0.0198897
0.0133573
0.00657426
1.68749e-05
-0.00592436
-0.0111658
-0.0156941
-0.0193302
-0.0220829
-0.0238493
-0.024602
-0.0245702
-0.0240439
-0.0229919
-0.021387
-0.0195303
-0.0176499
-0.0158155
-0.0140459
-0.0124103
-0.0107937
0.0252852
0.0276798
0.0303219
0.0331916
0.0361028
0.0392465
0.0427558
0.0462618
0.0492037
0.0518681
0.054518
0.0565361
0.0575681
0.057481
0.0562182
0.0536794
0.0501041
0.0451488
0.0385933
0.0310392
0.023191
0.0149535
0.0062538
-0.00214842
-0.00964978
-0.0161975
-0.0218391
-0.0262828
-0.029589
-0.0315785
-0.0321816
-0.0317838
-0.030875
-0.0293274
-0.027013
-0.0244186
-0.0218823
-0.0194561
-0.017118
-0.0149691
-0.0127659
0.0277602
0.0306088
0.0337861
0.0372794
0.0409128
0.0449043
0.0493973
0.053984
0.05805
0.0618706
0.0656801
0.0687584
0.070631
0.0710564
0.0698875
0.0669599
0.0624859
0.0561152
0.0476719
0.0378749
0.0275608
0.0167158
0.0053588
-0.0055894
-0.0153678
-0.0238288
-0.0309598
-0.0364131
-0.0402335
-0.0422687
-0.0425192
-0.0414774
-0.0397368
-0.0372277
-0.0338736
-0.0302459
-0.0267548
-0.0234782
-0.0203964
-0.0176124
-0.0148743
0.0304763
0.033853
0.0376627
0.041908
0.0464332
0.0514911
0.0572379
0.0632164
0.0687328
0.0740866
0.0795124
0.0841402
0.0873248
0.0886312
0.0877371
0.0843681
0.078682
0.0703708
0.0593748
0.0465728
0.0329978
0.0186993
0.00377714
-0.0105914
-0.0233964
-0.0343749
-0.0434429
-0.0501394
-0.0544608
-0.0563414
-0.0559339
-0.0538723
-0.0508989
-0.0470186
-0.0422209
-0.0372091
-0.0325024
-0.0281728
-0.0241654
-0.0206058
-0.0172502
0.0334307
0.0374259
0.0419715
0.0471001
0.052622
0.0589088
0.0662068
0.0738987
0.0806557
0.0874093
0.0949941
0.10182
0.107107
0.109966
0.109643
0.105821
0.098433
0.0874099
0.0730352
0.0563052
0.0391769
0.0210663
0.00146404
-0.0174129
-0.0337889
-0.0476434
-0.0591903
-0.0674044
-0.0719459
-0.0731382
-0.0716222
-0.0680256
-0.0635893
-0.0581149
-0.0513729
-0.0445623
-0.0386878
-0.0334346
-0.0283234
-0.0238373
-0.0198223
0.0365654
0.0412505
0.0466357
0.0527941
0.0595132
0.0672992
0.0765071
0.0863782
0.0949572
0.1038
0.114324
0.124183
0.132395
0.137501
0.138184
0.133997
0.124606
0.110192
0.0914215
0.0694705
0.0473058
0.023818
-0.0020132
-0.0268642
-0.0481313
-0.0659535
-0.0807547
-0.0908862
-0.0956602
-0.0958251
-0.092584
-0.0866588
-0.0799001
-0.0720097
-0.062611
-0.0534273
-0.0459431
-0.0394366
-0.0329823
-0.027401
-0.0226111
0.0397948
0.0452108
0.0515281
0.0588635
0.0670582
0.0767036
0.0882336
0.100909
0.112728
0.125225
0.13974
0.153701
0.165758
0.173905
0.176257
0.171942
0.160433
0.142004
0.117578
0.0886637
0.0586836
0.0269568
-0.00713352
-0.0398401
-0.0681593
-0.0918562
-0.110992
-0.123601
-0.128897
-0.127828
-0.121979
-0.112539
-0.101865
-0.0900652
-0.0770589
-0.0647721
-0.0547634
-0.0462345
-0.0381556
-0.0313124
-0.0255804
0.043033
0.0491991
0.0565128
0.0651311
0.0749464
0.0866846
0.100939
0.117103
0.133279
0.150726
0.170459
0.189804
0.206982
0.219379
0.224432
0.220456
0.2065
0.183061
0.151433
0.113468
0.0730868
0.0304833
-0.0141768
-0.0568729
-0.0943104
-0.125722
-0.150593
-0.16642
-0.172221
-0.169209
-0.159399
-0.144748
-0.128429
-0.111205
-0.093493
-0.0773469
-0.0642713
-0.0533464
-0.0434207
-0.0351978
-0.0284784
0.0460818
0.0528836
0.06122
0.0711671
0.0824024
0.096114
0.113419
0.133774
0.157018
0.18231
0.208543
0.234544
0.256544
0.272894
0.282836
0.28078
0.263499
0.233427
0.192892
0.143635
0.0894653
0.0325862
-0.0249236
-0.0797039
-0.127781
-0.168264
-0.20123
-0.221903
-0.228238
-0.222491
-0.206055
-0.183184
-0.158886
-0.134233
-0.110722
-0.0900459
-0.0735534
-0.0600449
-0.0481297
-0.0384744
-0.0309452
0.0490145
0.0564483
0.0658181
0.0771288
0.0898557
0.105668
0.126234
0.151107
0.181889
0.215664
0.249246
0.283113
0.311675
0.33358
0.349221
0.349262
0.328323
0.290847
0.240182
0.178086
0.108368
0.0354472
-0.0365051
-0.1051
-0.165965
-0.217384
-0.2593
-0.284911
-0.291317
-0.282015
-0.257879
-0.225532
-0.191896
-0.158617
-0.128545
-0.102883
-0.0826982
-0.06645
-0.0524732
-0.0413697
-0.0330482
0.0518901
0.0600525
0.0704393
0.0831213
0.0976604
0.115915
0.139794
0.169087
0.205598
0.246211
0.287518
0.33031
0.372377
0.406465
0.427154
0.428077
0.40338
0.35834
0.295625
0.218685
0.131812
0.0412168
-0.0459024
-0.129474
-0.209216
-0.277222
-0.327029
-0.355801
-0.360521
-0.346087
-0.313959
-0.271869
-0.227121
-0.183428
-0.146506
-0.115712
-0.0916833
-0.0726036
-0.0565909
-0.0440814
-0.0348386
0.0544642
0.063282
0.0745954
0.0885499
0.104808
0.125391
0.152416
0.185865
0.227647
0.274915
0.324444
0.376442
0.431526
0.476924
0.501811
0.503238
0.474991
0.422944
0.348879
0.258052
0.15521
0.0477548
-0.0545393
-0.15304
-0.250713
-0.333946
-0.390444
-0.421621
-0.424358
-0.404915
-0.365321
-0.314306
-0.259385
-0.206067
-0.162726
-0.126993
-0.0992882
-0.0775594
-0.0596982
-0.0459528
-0.0359194
0.0564977
0.0657261
0.0777974
0.0928129
0.110472
0.132988
0.162717
0.199695
0.244325
0.296212
0.35754
0.421563
0.484741
0.536115
0.563731
0.565515
0.534639
0.477211
0.394076
0.292196
0.177295
0.0562424
-0.0635124
-0.178767
-0.287054
-0.37788
-0.439346
-0.472675
-0.473967
-0.450657
-0.404786
-0.346543
-0.284643
-0.224663
-0.175606
-0.135106
-0.104347
-0.0805394
-0.0612394
-0.0465853
-0.0360326
0.058063
0.0675536
0.0801718
0.095954
0.114607
0.138499
0.170183
0.20973
0.256043
0.311059
0.382234
0.455897
0.524389
0.579388
0.608635
0.610862
0.578544
0.517914
0.428813
0.319636
0.196807
0.0663539
-0.0668911
-0.194966
-0.309808
-0.404836
-0.469328
-0.504144
-0.504383
-0.478483
-0.428348
-0.365364
-0.299174
-0.235045
-0.182261
-0.13853
-0.105903
-0.0809191
-0.0608453
-0.045765
-0.0350382
0.059257
0.0689682
0.0818974
0.0980938
0.117282
0.141875
0.174497
0.215349
0.264143
0.322024
0.395071
0.470324
0.540018
0.595819
0.625943
0.628858
0.596942
0.536205
0.446549
0.336225
0.211283
0.0780231
-0.058784
-0.190293
-0.307731
-0.40465
-0.470399
-0.505976
-0.505884
-0.479268
-0.428808
-0.365444
-0.298472
-0.23355
-0.180135
-0.135894
-0.103161
-0.0782493
-0.0582814
-0.0433784
-0.0328672
0.0599055
0.0696548
0.0826267
0.098852
0.11803
0.142532
0.174928
0.215423
0.264457
0.32204
0.392652
0.465606
0.534345
0.590015
0.620807
0.624996
0.595177
0.53721
0.451025
0.344317
0.22248
0.0925489
-0.0404563
-0.168579
-0.284045
-0.380018
-0.445272
-0.480966
-0.481248
-0.455796
-0.407811
-0.347261
-0.282665
-0.220024
-0.16892
-0.126738
-0.0957945
-0.0722966
-0.0533924
-0.0393259
-0.029468
0.0598525
0.0693275
0.0820668
0.0979493
0.116641
0.140355
0.171451
0.209989
0.256682
0.310599
0.372869
0.438037
0.504228
0.559213
0.590218
0.596015
0.57018
0.517997
0.43953
0.341364
0.226994
0.105673
-0.0129881
-0.127504
-0.235432
-0.326514
-0.388656
-0.423176
-0.425442
-0.403981
-0.362179
-0.308559
-0.250738
-0.194659
-0.149459
-0.11242
-0.0845478
-0.0632103
-0.0462549
-0.0336641
-0.0248762
0.0592669
0.0683054
0.080583
0.0958047
0.113579
0.135924
0.164942
0.200486
0.243493
0.292222
0.34458
0.400161
0.461631
0.514078
0.544449
0.552063
0.531466
0.487245
0.419517
0.33368
0.231234
0.123105
0.0230112
-0.0738286
-0.170102
-0.252878
-0.309963
-0.34278
-0.347814
-0.332073
-0.298804
-0.254881
-0.206827
-0.160107
-0.123032
-0.0928665
-0.0694039
-0.0512534
-0.0370201
-0.0264686
-0.0191498
0.0583592
0.0669704
0.0786274
0.0929575
0.109471
0.130036
0.156547
0.188631
0.227089
0.270164
0.315837
0.364219
0.415849
0.460279
0.488399
0.497511
0.483053
0.448393
0.393645
0.323225
0.239392
0.150499
0.0670048
-0.014176
-0.092976
-0.161445
-0.211992
-0.243072
-0.252026
-0.243794
-0.220879
-0.188883
-0.153851
-0.119472
-0.0913921
-0.0684831
-0.0506913
-0.0369021
-0.0260006
-0.0179343
-0.0124304
0.0571027
0.0652355
0.0761758
0.0894944
0.10463
0.123283
0.147125
0.175569
0.209252
0.246737
0.286321
0.32778
0.368873
0.404347
0.429795
0.440624
0.433074
0.409147
0.368879
0.315727
0.252611
0.184586
0.118222
0.0529714
-0.00755282
-0.060792
-0.104249
-0.133546
-0.146787
-0.146783
-0.135257
-0.116448
-0.095758
-0.0748721
-0.0565978
-0.0415081
-0.0298974
-0.0209318
-0.0137484
-0.00846983
-0.00499653
0.0556541
0.0633712
0.0735591
0.0858507
0.0999081
0.116972
0.138187
0.162892
0.189865
0.220019
0.253951
0.289347
0.322876
0.352289
0.375756
0.388883
0.389049
0.376734
0.351862
0.316783
0.273596
0.225408
0.176609
0.127155
0.0803365
0.0377306
0.0010006
-0.0264293
-0.0434013
-0.0511117
-0.0511585
-0.0456707
-0.0379818
-0.0292123
-0.0209584
-0.0139617
-0.00850728
-0.00431547
-0.00104685
0.00127751
0.00273961
0.0539612
0.0612442
0.070672
0.0819485
0.0949744
0.110552
0.129334
0.150626
0.17138
0.194891
0.224108
0.254771
0.282624
0.307872
0.330734
0.347093
0.355518
0.355055
0.345518
0.328193
0.304375
0.275318
0.243305
0.208477
0.173492
0.139545
0.108044
0.0813657
0.0599026
0.0440498
0.032405
0.0248402
0.0199731
0.0170186
0.0153656
0.0142337
0.0134479
0.0127714
0.0120351
0.0113259
0.0107109
0.051978
0.0587272
0.0674072
0.0776915
0.0894521
0.103392
0.120047
0.138639
0.156082
0.176059
0.201937
0.229529
0.254897
0.279232
0.303793
0.325032
0.341696
0.352485
0.356727
0.355181
0.349438
0.33811
0.32127
0.299289
0.273822
0.246092
0.216593
0.187745
0.160267
0.13537
0.113214
0.0940899
0.0775081
0.0635539
0.052304
0.0431826
0.0359442
0.0301506
0.0254206
0.0216846
0.0188423
0.0498946
0.0561357
0.0641203
0.0734897
0.0840839
0.0965706
0.111464
0.128019
0.143263
0.160993
0.184752
0.210681
0.235314
0.260482
0.288122
0.315215
0.340681
0.362919
0.380732
0.39406
0.404662
0.409017
0.405456
0.394549
0.376849
0.353699
0.324826
0.292865
0.258908
0.224817
0.192145
0.161505
0.133241
0.108388
0.0877947
0.0709805
0.0575433
0.0468394
0.038293
0.0316668
0.0266895
0.0478821
0.0537498
0.0611203
0.0696825
0.0792409
0.090477
0.103952
0.119026
0.133415
0.150359
0.172912
0.19814
0.223279
0.250447
0.28192
0.315446
0.350241
0.384352
0.417611
0.446841
0.471162
0.488091
0.495621
0.493944
0.482789
0.463339
0.434759
0.399929
0.359685
0.316619
0.272175
0.228445
0.18693
0.149833
0.120157
0.0961519
0.0770758
0.0619501
0.0499312
0.040682
0.0338618
0.0458857
0.0514289
0.0582617
0.0661272
0.0748025
0.0849942
0.0973248
0.111268
0.125228
0.141862
0.163708
0.188729
0.214803
0.244257
0.279652
0.31956
0.363604
0.409201
0.456946
0.500572
0.536632
0.564007
0.580622
0.586393
0.5803
0.563514
0.534814
0.497313
0.451458
0.40036
0.34507
0.289078
0.234997
0.186342
0.148421
0.118073
0.0941079
0.0751755
0.0601648
0.0486536
0.0402525
0.0438292
0.0490023
0.055357
0.0626232
0.0705687
0.0799054
0.0912901
0.104277
0.117383
0.133281
0.15457
0.179482
0.206227
0.237472
0.276221
0.321762
0.375874
0.433224
0.49212
0.54657
0.592482
0.628646
0.652205
0.663404
0.660448
0.644948
0.616085
0.576488
0.52609
0.468575
0.404992
0.339498
0.274796
0.216276
0.171659
0.136233
0.108322
0.0863022
0.0688948
0.0555585
0.0457951
0.0418216
0.0466586
0.0525908
0.0593338
0.0666438
0.075244
0.0858276
0.0980146
0.110411
0.125671
0.146413
0.171072
0.198105
0.23044
0.271423
0.320907
0.382748
0.44898
0.515796
0.577956
0.631096
0.673788
0.702265
0.717221
0.716267
0.701523
0.672613
0.63168
0.578155
0.51629
0.447121
0.375225
0.30309
0.237576
0.188468
0.149595
0.118929
0.0947104
0.0755921
0.060948
0.0502071
0.0399267
0.0445062
0.0500656
0.0563391
0.0630093
0.0708826
0.0807621
0.0923017
0.104677
0.119918
0.140045
0.164148
0.190974
0.223527
0.265246
0.31626
0.38044
0.449624
0.519634
0.58511
0.641777
0.687753
0.718615
0.735434
0.736013
0.722236
0.693614
0.652379
0.598181
0.535129
0.464256
0.390345
0.316426
0.249189
0.198278
0.157804
0.125453
0.0997513
0.0796514
0.0642718
0.0531695
0.0380885
0.0424344
0.0476549
0.0535039
0.0595885
0.0667927
0.0760195
0.0869397
0.0992737
0.114395
0.133681
0.156814
0.182748
0.214454
0.255286
0.305389
0.368451
0.436661
0.506052
0.571272
0.62819
0.674649
0.705794
0.723079
0.724559
0.711809
0.684171
0.644008
0.591248
0.529743
0.460425
0.388164
0.316347
0.250914
0.200821
0.160637
0.127995
0.101847
0.0815305
0.0659706
0.0549034
0.0362449
0.0403259
0.0452271
0.0506927
0.0563143
0.0629683
0.0715607
0.0817788
0.0933599
0.107571
0.125683
0.1474
0.171685
0.201443
0.239865
0.286801
0.344895
0.40783
0.472654
0.533854
0.586843
0.630113
0.659676
0.676278
0.678443
0.667152
0.641621
0.604246
0.555416
0.498499
0.434498
0.368007
0.30282
0.243345
0.196445
0.158298
0.126958
0.10164
0.0818513
0.0666054
0.0557135
0.0344407
0.0382644
0.0428635
0.047981
0.0532018
0.0593619
0.0673298
0.0767918
0.0874709
0.100555
0.117229
0.137163
0.159271
0.18628
0.221085
0.263103
0.313844
0.368723
0.426081
0.480611
0.527555
0.566002
0.592797
0.607942
0.610453
0.600768
0.578002
0.544455
0.500885
0.450295
0.393877
0.335704
0.279643
0.228343
0.186391
0.151652
0.122736
0.0991317
0.0804983
0.0659894
0.0555291
0.0327215
0.0363306
0.0406441
0.045448
0.0504582
0.0563097
0.0636707
0.072363
0.0822398
0.0942481
0.109324
0.127245
0.147129
0.171175
0.201623
0.237654
0.27946
0.32435
0.371004
0.41584
0.456017
0.489342
0.513013
0.526499
0.528875
0.520634
0.501404
0.472664
0.434763
0.39115
0.344316
0.296582
0.250496
0.208028
0.171992
0.141528
0.116035
0.0950098
0.078004
0.0645502
0.0545968
0.0310548
0.0344546
0.0384882
0.0429843
0.0477892
0.053334
0.060082
0.067985
0.0770198
0.0878873
0.101268
0.11704
0.134515
0.15537
0.181214
0.21107
0.243894
0.27874
0.314466
0.349158
0.381889
0.409414
0.429493
0.441047
0.443148
0.436362
0.420865
0.397336
0.365692
0.329599
0.292591
0.255294
0.219013
0.185258
0.155275
0.12936
0.107594
0.0894398
0.0743183
0.0621366
0.0528692
0.0294061
0.0325642
0.0363142
0.0404833
0.0449081
0.0499706
0.0560812
0.0631695
0.0711776
0.0807168
0.0923689
0.105951
0.120696
0.138091
0.15951
0.183782
0.209821
0.237147
0.265133
0.292252
0.316735
0.337255
0.353413
0.362934
0.364841
0.359576
0.347432
0.328948
0.30485
0.277259
0.248017
0.218512
0.189719
0.162655
0.138142
0.11655
0.0981767
0.0826335
0.0694468
0.0586515
0.0503409
0.0278129
0.0307299
0.0341959
0.0380289
0.0420484
0.0466066
0.0520802
0.0583694
0.0653771
0.0736311
0.0836258
0.0951317
0.107328
0.121549
0.139007
0.158475
0.178939
0.200197
0.221931
0.242695
0.259689
0.273616
0.286
0.293515
0.295178
0.291247
0.282089
0.268209
0.251172
0.231369
0.208753
0.185646
0.162966
0.141445
0.121649
0.103911
0.0886089
0.0754729
0.0641424
0.05473
0.0474083
0.0262831
0.0289705
0.0321563
0.0356561
0.0392791
0.0433499
0.0482155
0.0537661
0.0599956
0.0672173
0.0757157
0.0853859
0.0957098
0.107549
0.12164
0.137063
0.152724
0.168844
0.185538
0.201347
0.214297
0.224818
0.233805
0.239195
0.240465
0.237481
0.230311
0.219659
0.207029
0.192245
0.174924
0.157036
0.139641
0.12299
0.107187
0.0927531
0.0799709
0.0688165
0.0591733
0.0510471
0.0444944
0.0247966
0.0272558
0.0301652
0.0333402
0.036583
0.0401947
0.0444976
0.049377
0.0549245
0.0612488
0.0684365
0.0765224
0.0853099
0.0952097
0.106515
0.118632
0.130382
0.142367
0.155102
0.167141
0.17737
0.185648
0.191963
0.195572
0.196484
0.194202
0.188479
0.180181
0.170725
0.159614
0.146389
0.132631
0.119522
0.106868
0.0943429
0.0826648
0.0719984
0.0625382
0.0543877
0.0474241
0.0415681
0.0233367
0.0255601
0.0281971
0.03106
0.0339427
0.0371301
0.0409253
0.0451974
0.0500171
0.0554394
0.061502
0.0682338
0.0754368
0.0834467
0.0924939
0.10202
0.110913
0.119896
0.129628
0.138801
0.14648
0.152608
0.15724
0.159843
0.160555
0.158862
0.15445
0.148125
0.141189
0.132972
0.122842
0.112227
0.102197
0.0924286
0.0824856
0.0730503
0.0642762
0.0563904
0.0495384
0.0436108
0.0385481
0.0219257
0.023924
0.0262996
0.0288719
0.0314378
0.0342593
0.0376132
0.0413572
0.0455429
0.0501978
0.055335
0.0609704
0.0668945
0.0734026
0.0807028
0.0882855
0.0951215
0.101956
0.109491
0.116553
0.12235
0.126914
0.130373
0.132288
0.132849
0.131575
0.12814
0.123253
0.118093
0.111927
0.104053
0.0957485
0.0879556
0.0803011
0.0723244
0.0646593
0.0574329
0.0508644
0.0451057
0.0400661
0.0357101
0.020657
0.022518
0.0246539
0.0269687
0.0293591
0.03197
0.0349561
0.0382546
0.0419013
0.0459198
0.0503223
0.0551156
0.0601889
0.0656877
0.0716947
0.077893
0.0836934
0.0894361
0.0954293
0.100985
0.105602
0.109226
0.111875
0.113285
0.11353
0.112349
0.109593
0.105685
0.101299
0.0961072
0.0898091
0.0831495
0.0766977
0.0703099
0.063783
0.0574868
0.0515352
0.0460786
0.0412181
0.0369144
0.0331451

POINT_DATA	1681
SCALARS g_z double 1
LOOKUP_TABLE table0
0.0230454
0.025047
0.0272426
0.0296125
0.0320479
0.0346299
0.0373982
0.0401174
0.0424506
0.0445059
0.0463777
0.0476984
0.0482394
0.0479043
0.0466524
0.04443
0.0413604
0.037271
0.0320737
0.0261351
0.0198897
0.0133573
0.00657426
1.68749e-05
-0.00592436
-0.0111658
-0.0156941
-0.0193302
-0.0220829
-0.0238493
-0.024602
-0.0245702
-0.0240439
-0.0229919
-0.021387
-0.0195303
-0.0176499
-0.0158155
-0.0140459
-0.0124103
-0.0107937
0.0252852
0.0276798
0.0303219
0.0331916
0.0361028
0.0392465
0.0427558
0.0462618
0.0492037
0.0518681
0.054518
0.0565361
0.0575681
0.057481
0.0562182
0.0536794
0.0501041
0.0451488
0.0385933
0.0310392
0.023191
0.0149535
0.0062538
-0.00214842
-0.00964978
-0.0161975
-0.0218391
-0.0262828
-0.029589
-0.0315785
-0.0321816
-0.0317838
-0.030875
-0.0293274
-0.027013
-0.0244186
-0.0218823
-0.0194561
-0.017118
-0.0149691
-0.0127659
0.0277602
0.0306088
0.0337861
0.0372794
0.0409128
0.0449043
0.0493973
0.053984
0.05805
0.0618706
0.0656801
0.0687584
0.070631
0.0710564
0.0698875
0.0669599
0.0624859
0.0561152
0.0476719
0.0378749
0.0275608
0.0167158
0.0053588
-0.0055894
-0.0153678
-0.0238288
-0.0309598
-0.0364131
-0.0402335
-0.0422687
-0.0425192
-0.0414774
-0.0397368
-0.0372277
-0.0338736
-0.0302459
-0.0267548
-0.0234782
-0.0203964
-0.0176124
-0.0148743
0.0304763
0.033853
0.0376627
0.041908
0.0464332
0.0514911
0.0572379
0.0632164
0.0687328
0.0740866
0.0795124
0.0841402
0.0873248
0.0886312
0.0877371
0.0843681
0.078682
0.0703708
0.0593748
0.0465728
0.0329978
0.0186993
0.00377714
-0.0105914
-0.0233964
-0.0343749
-0.0434429
-0.0501394
-0.0544608
-0.0563414
-0.0559339
-0.0538723
-0.0508989
-0.0470186
-0.0422209
-0.0372091
-0.0325024
-0.0281728
-0.0241654
-0.0206058
-0.0172502
0.0334307
0.0374259
0.0419715
0.0471001
0.052622
0.0589088
0.0662068
0.0738987
0.0806557
0.0874093
0.0949941
0.10182
0.107107
0.109966
0.109643
0.105821
0.098433
0.0874099
0.0730352
0.0563052
0.0391769
0.0210663
0.00146404
-0.0174129
-0.0337889
-0.0476434
-0.0591903
-0.0674044
-0.0719459
-0.0731382
-0.0716222
-0.0680256
-0.0635893
-0.0581149
-0.0513729
-0.0445623
-0.0386878
-0.0334346
-0.0283234
-0.0238373
-0.0198223
0.0365654
0.0412505
0.0466357
0.0527941
0.0595132
0.0672992
0.0765071
0.0863782
0.0949572
0.1038
0.114324
0.124183
0.132395
0.137501
0.138184
0.133997
0.124606
0.110192
0.0914215
0.0694705
0.0473058
0.023818
-0.0020132
-0.0268642
-0.0481313
-0.0659535
-0.0807547
-0.0908862
-0.0956602
-0.0958251
-0.092584
-0.0866588
-0.0799001
-0.0720097
-0.062611
-0.0534273
-0.0459431
-0.0394366
-0.0329823
-0.027401
-0.0226111
0.0397948
0.0452108
0.0515281
0.0588635
0.0670582
0.0767036
0.0882336
0.100909
0.112728
0.125225
0.13974
0.153701
0.165758
0.173905
0.176257
0.171942
0.160433
0.142004
0.117578
0.0886637
0.0586836
0.0269568
-0.00713352
-0.0398401
-0.0681593
-0.0918562
-0.110992
-0.123601
-0.128897
-0.127828
-0.121979
-0.112539
-0.101865
-0.0900652
-0.0770589
-0.0647721
-0.0547634
-0.0462345
-0.0381556
-0.0313124
-0.0255804
0.043033
0.0491991
0.0565128
0.0651311
0.0749464
0.0866846
0.100939
0.117103
0.133279
0.150726
0.170459
0.189804
0.206982
0.219379
0.224432
0.220456
0.2065
0.183061
0.151433
0.113468
0.0730868
0.0304833
-0.0141768
-0.0568729
-0.0943104
-0.125722
-0.150593
-0.16642
-0.172221
-0.169209
-0.159399
-0.144748
-0.128429
-0.111205
-0.093493
-0.0773469
-0.0642713
-0.0533464
-0.0434207
-0.0351978
-0.0284784
0.0460818
0.0528836
0.06122
0.0711671
0.0824024
0.096114
0.113419
0.133774
0.157018
0.18231
0.208543
0.234544
0.256544
0.272894
0.282836
0.28078
0.263499
0.233427
0.192892
0.143635
0.0894653
0.0325862
-0.0249236
-0.0797039
-0.127781
-0.168264
-0.20123
-0.221903
-0.228238
-0.222491
-0.206055
-0.183184
-0.158886
-0.134233
-0.110722
-0.0900459
-0.0735534
-0.0600449
-0.0481297
-0.0384744
-0.0309452
0.0490145
0.0564483