# vtk DataFile Version 3.0
Gravity inversion using rectangular prisms
ASCII
DATASET UNSTRUCTURED_GRID

POINTS	1200	double
100	100	100
100	100	300
100	100	500
100	100	700
100	100	900
100	300	100
100	300	300
100	300	500
100	300	700
100	300	900
100	500	100
100	500	300
100	500	500
100	500	700
100	500	900
100	700	100
100	700	300
100	700	500
100	700	700
100	700	900
100	900	100
100	900	300
100	900	500
100	900	700
100	900	900
100	1100	100
100	1100	300
100	1100	500
100	1100	700
100	1100	900
100	1300	100
100	1300	300
100	1300	500
100	1300	700
100	1300	900
100	1500	100
100	1500	300
100	1500	500
100	1500	700
100	1500	900
100	1700	100
100	1700	300
100	1700	500
100	1700	700
100	1700	900
100	1900	100
100	1900	300
100	1900	500
100	1900	700
100	1900	900
300	100	100
300	100	300
300	100	500
300	100	700
300	100	900
300	300	100
300	300	300
300	300	500
300	300	700
300	300	900
300	500	100
300	500	300
300	500	500
300	500	700
300	500	900
300	700	100
300	700	300
300	700	500
300	700	700
300	700	900
300	900	100
300	900	300
300	900	500
300	900	700
300	900	900
300	1100	100
300	1100	300
300	1100	500
300	1100	700
300	1100	900
300	1300	100
300	1300	300
300	1300	500
300	1300	700
300	1300	900
300	1500	100
300	1500	300
300	1500	500
300	1500	700
300	1500	900
300	1700	100
300	1700	300
300	1700	500
300	1700	700
300	1700	900
300	1900	100
300	1900	300
300	1900	500
300	1900	700
300	1900	900
500	100	100
500	100	300
500	100	500
500	100	700
500	100	900
500	300	100
500	300	300
500	300	500
500	300	700
500	300	900
500	500	100
450	450	250
450	450	350
450	550	250
450	550	350
550	450	250
550	450	350
550	550	250
550	550	350
500	500	500
500	500	700
500	500	900
450	650	50
450	650	150
450	750	50
450	750	150
550	650	50
550	650	150
550	750	50
550	750	150
450	650	250
450	650	350
450	750	250
450	750	350
550	650	250
550	650	350
550	750	250
550	750	350
500	700	500
500	700	700
500	700	900
500	900	100
450	850	250
450	850	350
450	950	250
450	950	350
550	850	250
550	850	350
550	950	250
550	950	350
500	900	500
500	900	700
500	900	900
500	1100	100
500	1100	300
500	1100	500
500	1100	700
500	1100	900
500	1300	100
500	1300	300
500	1300	500
500	1300	700
500	1300	900
500	1500	100
500	1500	300
500	1500	500
500	1500	700
500	1500	900
500	1700	100
500	1700	300
500	1700	500
500	1700	700
500	1700	900
500	1900	100
500	1900	300
500	1900	500
500	1900	700
500	1900	900
700	100	100
700	100	300
700	100	500
700	100	700
700	100	900
700	300	100
650	250	250
650	250	350
650	350	250
650	350	350
750	250	250
750	250	350
750	350	250
750	350	350
700	300	500
700	300	700
700	300	900
650	450	50
650	450	150
650	550	50
650	550	150
750	450	50
750	450	150
750	550	50
750	550	150
650	450	250
650	450	350
650	550	250
650	550	350
750	450	250
750	450	350
750	550	250
750	550	350
650	450	450
650	450	550
650	550	450
650	550	550
750	450	450
750	450	550
750	550	450
750	550	550
700	500	700
700	500	900
650	650	50
650	650	150
650	750	50
650	750	150
750	650	50
750	650	150
750	750	50
750	750	150
650	650	250
650	650	350
650	750	250
650	750	350
750	650	250
750	650	350
750	750	250
750	750	350
650	650	450
650	650	550
650	750	450
650	750	550
750	650	450
750	650	550
750	750	450
750	750	550
700	700	700
700	700	900
650	850	50
650	850	150
650	950	50
650	950	150
750	850	50
750	850	150
750	950	50
750	950	150
650	850	250
650	850	350
650	950	250
650	950	350
750	850	250
750	850	350
750	950	250
750	950	350
700	900	500
700	900	700
700	900	900
700	1100	100
650	1050	250
650	1050	350
650	1150	250
650	1150	350
750	1050	250
750	1050	350
750	1150	250
750	1150	350
700	1100	500
700	1100	700
700	1100	900
700	1300	100
650	1250	250
650	1250	350
650	1350	250
650	1350	350
750	1250	250
750	1250	350
750	1350	250
750	1350	350
700	1300	500
700	1300	700
700	1300	900
700	1500	100
700	1500	300
700	1500	500
700	1500	700
700	1500	900
700	1700	100
700	1700	300
700	1700	500
700	1700	700
700	1700	900
700	1900	100
700	1900	300
700	1900	500
700	1900	700
700	1900	900
900	100	100
900	100	300
900	100	500
900	100	700
900	100	900
850	250	50
850	250	150
850	350	50
850	350	150
950	250	50
950	250	150
950	350	50
950	350	150
850	250	250
850	250	350
850	350	250
850	350	350
950	250	250
950	250	350
950	350	250
950	350	350
900	300	500
900	300	700
900	300	900
850	450	50
850	450	150
850	550	50
850	550	150
950	450	50
950	450	150
950	550	50
950	550	150
850	450	250
850	450	350
850	550	250
850	550	350
950	450	250
950	450	350
950	550	250
950	550	350
850	450	450
850	450	550
850	550	450
850	550	550
950	450	450
950	450	550
950	550	450
950	550	550
900	500	700
900	500	900
850	650	50
850	650	150
850	750	50
850	750	150
950	650	50
950	650	150
950	750	50
950	750	150
850	650	250
850	650	350
850	750	250
850	750	350
950	650	250
950	650	350
950	750	250
950	750	350
850	650	450
850	650	550
850	750	450
850	750	550
950	650	450
950	650	550
950	750	450
950	750	550
900	700	700
900	700	900
850	850	50
850	850	150
850	950	50
850	950	150
950	850	50
950	850	150
950	950	50
950	950	150
850	850	250
850	850	350
850	950	250
850	950	350
950	850	250
950	850	350
950	950	250
950	950	350
850	850	450
850	850	550
850	950	450
850	950	550
950	850	450
950	850	550
950	950	450
950	950	550
900	900	700
900	900	900
900	1100	100
850	1050	250
850	1050	350
850	1150	250
850	1150	350
950	1050	250
950	1050	350
950	1150	250
950	1150	350
900	1100	500
900	1100	700
900	1100	900
900	1300	100
850	1250	250
850	1250	350
850	1350	250
850	1350	350
950	1250	250
950	1250	350
950	1350	250
950	1350	350
900	1300	500
900	1300	700
900	1300	900
850	1450	50
850	1450	150
850	1550	50
850	1550	150
950	1450	50
950	1450	150
950	1550	50
950	1550	150
850	1450	250
850	1450	350
850	1550	250
850	1550	350
950	1450	250
950	1450	350
950	1550	250
950	1550	350
900	1500	500
900	1500	700
900	1500	900
900	1700	100
850	1650	250
850	1650	350
850	1750	250
850	1750	350
950	1650	250
950	1650	350
950	1750	250
950	1750	350
900	1700	500
900	1700	700
900	1700	900
900	1900	100
900	1900	300
900	1900	500
900	1900	700
900	1900	900
1100	100	100
1100	100	300
1100	100	500
1100	100	700
1100	100	900
1100	300	100
1050	250	250
1050	250	350
1050	350	250
1050	350	350
1150	250	250
1150	250	350
1150	350	250
1150	350	350
1100	300	500
1100	300	700
1100	300	900
1050	450	50
1050	450	150
1050	550	50
1050	550	150
1150	450	50
1150	450	150
1150	550	50
1150	550	150
1050	450	250
1050	450	350
1050	550	250
1050	550	350
1150	450	250
1150	450	350
1150	550	250
1150	550	350
1050	450	450
1050	450	550
1050	550	450
1050	550	550
1150	450	450
1150	450	550
1150	550	450
1150	550	550
1100	500	700
1100	500	900
1050	650	50
1050	650	150
1050	750	50
1050	750	150
1150	650	50
1150	650	150
1150	750	50
1150	750	150
1050	650	250
1050	650	350
1050	750	250
1050	750	350
1150	650	250
1150	650	350
1150	750	250
1150	750	350
1050	650	450
1050	650	550
1050	750	450
1050	750	550
1150	650	450
1150	650	550
1150	750	450
1150	750	550
1100	700	700
1100	700	900
1050	850	50
1050	850	150
1050	950	50
1050	950	150
1150	850	50
1150	850	150
1150	950	50
1150	950	150
1050	850	250
1050	850	350
1050	950	250
1050	950	350
1150	850	250
1150	850	350
1150	950	250
1150	950	350
1050	850	450
1050	850	550
1050	950	450
1050	950	550
1150	850	450
1150	850	550
1150	950	450
1150	950	550
1100	900	700
1100	900	900
1050	1050	50
1050	1050	150
1050	1150	50
1050	1150	150
1150	1050	50
1150	1050	150
1150	1150	50
1150	1150	150
1050	1050	250
1050	1050	350
1050	1150	250
1050	1150	350
1150	1050	250
1150	1050	350
1150	1150	250
1150	1150	350
1050	1050	450
1050	1050	550
1050	1150	450
1050	1150	550
1150	1050	450
1150	1050	550
1150	1150	450
1150	1150	550
1100	1100	700
1100	1100	900
1050	1250	50
1050	1250	150
1050	1350	50
1050	1350	150
1150	1250	50
1150	1250	150
1150	1350	50
1150	1350	150
1050	1250	250
1050	1250	350
1050	1350	250
1050	1350	350
1150	1250	250
1150	1250	350
1150	1350	250
1150	1350	350
1050	1250	450
1050	1250	550
1050	1350	450
1050	1350	550
1150	1250	450
1150	1250	550
1150	1350	450
1150	1350	550
1100	1300	700
1100	1300	900
1050	1450	50
1050	1450	150
1050	1550	50
1050	1550	150
1150	1450	50
1150	1450	150
1150	1550	50
1150	1550	150
1050	1450	250
1050	1450	350
1050	1550	250
1050	1550	350
1150	1450	250
1150	1450	350
1150	1550	250
1150	1550	350
1050	1450	450
1050	1450	550
1050	1550	450
1050	1550	550
1150	1450	450
1150	1450	550
1150	1550	450
1150	1550	550
1100	1500	700
1100	1500	900
1050	1650	50
1050	1650	150
1050	1750	50
1050	1750	150
1150	1650	50
1150	1650	150
1150	1750	50
1150	1750	150
1050	1650	250
1050	1650	350
1050	1750	250
1050	1750	350
1150	1650	250
1150	1650	350
1150	1750	250
1150	1750	350
1100	1700	500
1100	1700	700
1100	1700	900
1100	1900	100
1100	1900	300
1100	1900	500
1100	1900	700
1100	1900	900
1300	100	100
1250	50	250
1250	50	350
1250	150	250
1250	150	350
1350	50	250
1350	50	350
1350	150	250
1350	150	350
1300	100	500
1300	100	700
1300	100	900
1250	250	50
1250	250	150
1250	350	50
1250	350	150
1350	250	50
1350	250	150
1350	350	50
1350	350	150
1250	250	250
1250	250	350
1250	350	250
1250	350	350
1350	250	250
1350	250	350
1350	350	250
1350	350	350
1300	300	500
1300	300	700
1300	300	900
1250	450	50
1250	450	150
1250	550	50
1250	550	150
1350	450	50
1350	450	150
1350	550	50
1350	550	150
1250	450	250
1250	450	350
1250	550	250
1250	550	350
1350	450	250
1350	450	350
1350	550	250
1350	550	350
1250	450	450
1250	450	550
1250	550	450
1250	550	550
1350	450	450
1350	450	550
1350	550	450
1350	550	550
1300	500	700
1300	500	900
1250	650	50
1250	650	150
1250	750	50
1250	750	150
1350	650	50
1350	650	150
1350	750	50
1350	750	150
1250	650	250
1250	650	350
1250	750	250
1250	750	350
1350	650	250
1350	650	350
1350	750	250
1350	750	350
1250	650	450
1250	650	550
1250	750	450
1250	750	550
1350	650	450
1350	650	550
1350	750	450
1350	750	550
1300	700	700
1300	700	900
1250	850	50
1250	850	150
1250	950	50
1250	950	150
1350	850	50
1350	850	150
1350	950	50
1350	950	150
1250	850	250
1250	850	350
1250	950	250
1250	950	350
1350	850	250
1350	850	350
1350	950	250
1350	950	350
1250	850	450
1250	850	550
1250	950	450
1250	950	550
1350	850	450
1350	850	550
1350	950	450
1350	950	550
1300	900	700
1300	900	900
1250	1050	50
1250	1050	150
1250	1150	50
1250	1150	150
1350	1050	50
1350	1050	150
1350	1150	50
[...]
CELL_DATA	1200
SCALARS model double 1
LOOKUP_TABLE table0
0.324739
0.121262
-13.4916
-12.0194
-15.6704
0.498864
1.11589
-11.4027
-7.30829
-10.9454
0.709947
-1.8219
-13.4918
-3.41966
-5.69413
0.914002
-7.27189
-18.1625
-2.97649
-3.28702
0.0927927
-0.161909
-19.6193
-5.54707
-4.60277
-0.225935
3.85463
-17.5681
-8.20689
-7.70539
-0.188059
1.47984
-12.26
-8.25806
-10.3359
-0.231467
3.27715
-3.4335
-6.35207
-12.3284
-0.0884615
3.46805
-0.28316
-7.11331
-15.0555
-0.0284716
4.1907
-6.34825
-10.9497
-17.4106
0.000492643
0.330219
-12.3116
-7.26943
-9.99108
0.617361
-5.80425
-10.5357
0.424778
-2.74035
0.868888
-12.5146
-5.06605
11.1402
6.54694
1.09654
-10.5333
-1.69583
16.2964
11.4183
0.379376
-10.4202
-9.66135
10.5811
8.80856
0.408874
-8.82193
-17.5454
0.674398
1.85388
-0.263674
-0.786929
-16.2693
-5.2873
-4.95084
-0.832257
3.84315
-10.622
-7.40321
-10.5302
-0.0368263
-2.02897
-7.52761
-9.09726
-15.4958
-0.176059
3.75738
-5.96877
-9.96913
-17.3694
-0.218713
-0.910709
-11.6229
-0.230508
-1.96579
-0.934712
-4.16347
1.86651
15.458
9.35064
2.74468
-9.1732
-5.22109
13.9969
14.9181
22.7438
25.971
57.4503
54.527
34.4841
39.8201
24.7548
-2.81226
15.3798
0.318653
13.8549
11.368
63.6857
10.9669
59.2352
26.4902
24.0339
24.1332
24.3867
82.2198
74.2347
80.5819
74.3372
56.1844
53.3181
33.5782
0.218138
11.3991
17.3397
-4.76462
1.78158
56.3106
56.0087
25.0707
28.9954
27.9083
42.2335
30.144
-2.87477
-16.2598
-6.14377
21.3031
19.4264
-1.19519
-17.5176
-16.1679
7.52477
8.19284
-0.726493
-5.63241
-13.2707
-0.406
-2.62582
-0.42341
2.67921
-10.5866
-7.22298
-13.1788
-0.122036
-0.629985
-7.71395
-8.306
-16.3584
0.453443
-16.8161
-11.1304
4.57091
3.03499
-0.251451
-9.91294
-8.11774
10.4727
16.1839
-4.72859
-2.14058
14.616
22.0394
17.1866
25.6732
15.7337
-1.52356
32.527
13.8912
80.6907
3.44917
39.4053
18.4032
89.7028
48.1577
50.5884
99.5659
90.9975
57.547
60.736
114.628
104.785
65.4053
24.7414
94.0488
52.6952
71.2494
34.8129
99.3588
61.7243
58.8181
33.6617
25.6721
112.763
23.7537
109.014
31.6743
129.162
29.2593
125.582
135.412
118.172
133.685
117.864
154.794
134.185
152.756
133.571
109.808
69.3605
107.742
77.0925
116.346
79.1987
113.943
85.6293
78.465
45.3049
12.3239
75.1871
-1.35725
28.6023
16.5195
83.7178
-0.905945
32.2416
97.1974
91.3115
47.6694
52.7958
110.657
104.384
54.5459
63.3786
70.6136
67.6879
44.7454
-6.72624
7.80917
18.187
-12.524
-1.37858
13.3422
29.9917
-3.721
14.2566
20.5886
46.8918
37.2872
-3.21116
-15.7848
-4.39356
-13.0158
-3.47497
-1.67394
13.9176
7.75413
17.1949
9.75815
34.9663
27.7048
-2.09238
-2.58796
6.52452
22.2774
13.2795
-1.17292
-10.1143
-8.95344
2.64075
-5.70744
-0.250786
-7.38082
-11.8947
-3.88205
-12.5183
0.224503
-4.65272
-2.71303
4.5212
1.64464
0.112851
-5.73408
-0.703406
-4.67082
-0.0588342
0.149432
-0.278884
-5.25645
-1.12922
0.969212
11.9733
19.0588
2.65765
-1.17628
5.8868
8.0632
14.8731
16.8481
8.82358
1.38043
23.4161
13.8955
68.0591
1.96603
11.3336
5.55189
32.2734
47.1058
51.0175
94.9818
87.9222
24.9531
25.4286
51.1615
45.7809
59.8926
31.8562
81.7192
52.2723
30.3209
14.4961
43.0691
26.8366
37.31
20.0573
25.1057
103.514
23.4541
101.732
10.4455
50.2943
10.6056
51.6759
129.327
112.625
127.745
111.997
69.8602
59.1723
68.8754
58.4821
95.4629
65.964
93.4049
70.0979
50.2622
34.4307
49.1707
37.4394
51.9636
30.2116
13.5937
66.1712
-1.40766
21.1113
3.75024
30.4859
-5.34813
1.8853
91.1893
87.5179
43.4209
54.9201
47.0591
45.1649
19.813
30.2928
75.7316
64.5597
59.0717
58.5491
41.8271
37.5568
36.0837
38.8114
54.124
37.601
-7.7714
12.7059
32.6751
7.62886
29.3059
9.16838
27.6511
23.2557
43.2692
39.7349
59.3381
44.3583
12.667
23.8508
40.7229
48.3715
53.0409
58.5427
71.149
95.3171
94.1896
67.7476
69.4964
46.1718
5.85215
38.9397
-1.10646
26.2969
14.8329
72.6876
5.59179
46.5583
58.5458
49.5217
41.6248
32.7371
101.812
94.179
71.7015
69.6044
65.4437
58.0742
32.7085
-2.28294
22.4391
15.7113
4.69506
-7.46424
32.6231
34.8739
4.34724
1.8617
10.4191
20.8451
5.32565
-1.17689
-14.5265
-11.1857
4.93627
-6.15706
0.34596
-6.45249
6.8057
0.023516
-4.30317
0.179097
4.48208
-5.58052
-0.943553
-6.44761
2.93393
-10.6079
-6.75139
-20.3981
-6.16036
-7.42993
-7.57578
-0.1884
1.67681
-0.125065
-0.768248
-1.20466
-14.4469
-5.12348
-37.0093
-0.727884
-7.62047
-1.28363
-9.17924
-25.8886
-39.9914
-53.966
-63.8085
-2.31332
-2.6186
-6.06611
-6.11886
-39.599
-26.102
-55.4212
-39.8957
-16.2377
-9.97397
-0.217671
-5.0023
-0.305346
-3.65664
-12.2318
-61.0544
-13.86
-61.538
-3.64204
-11.2549
-5.14583
-12.4393
-77.5024
-81.6727
-80.2112
-83.6153
-8.64843
-7.20967
-9.34686
-5.5327
-67.2417
-48.6963
-67.7886
-48.2109
-16.3323
-5.55445
-3.44406
-6.03832
-4.36892
-15.4632
-8.02229
-42.8122
-4.53847
-29.3101
-7.53904
-11.0722
-8.88019
-3.39495
-62.6966
-67.5548
-37.0276
-37.6486
-5.83753
0.496761
4.99736
12.1197
-53.9662
-36.4532
-26.5114
-14.0475
5.19724
10.9718
-5.1319
-16.9861
-4.08558
4.63001
-5.58933
-18.6576
-2.24492
8.38795
2.69087
16.9293
36.2827
52.8176
-5.04106
3.53283
42.3399
55.4472
24.4327
27.6278
60.676
52.7358
12.0808
16.1642
58.3872
50.0549
49.2373
36.1708
5.86489
47.387
22.8363
99.8938
10.534
61.5924
25.5494
111.639
88.9052
96.5566
133.739
128.225
104.349
109.974
151.705
146.535
93.5049
70.5092
117.333
84.2179
101.175
78.9082
128.199
96.8435
89.286
53.4289
24.2771
103.948
9.23659
60.3759
24.8057
112.182
9.71476
65.5366
135.95
128.22
93.4903
95.5909
151.061
145.981
103.289
108.903
116.706
82.8113
92.5188
67.384
128.336
97.2951
102.65
80.5754
83.6155
44.6757
-2.90818
15.1102
-5.37886
-5.12984
-0.993479
18.5513
-3.56394
-2.13295
38.8906
48.2836
-0.546341
5.1606
42.6433
55.5116
-0.804064
7.92596
17.3324
34.5766
13.0324
-0.945006
-17.307
-10.0547
12.7271
-1.35075
-0.125728
13.6699
6.44057
1.16055
-2.29226
12.1396
8.94388
7.31482
2.20912
11.5441
-5.14545
-8.72459
-1.91365
16.1254
-1.07066
1.19417
-1.71925
14.0764
-0.0941834
1.77976
3.88822
-10.1458
-10.3528
-29.4724
6.01657
-8.95869
-10.4469
-31.7763
-21.3499
-26.3511
-19.9608
-3.27264
-25.1854
-17.5804
-73.6761
-6.73846
-32.1526
-21.1853
-87.2257
-45.756
-63.6445
-96.2179
-104.426
-52.0543
-71.4708
-110.456
-118.636
-62.7398
-38.274
-91.0454
-63.9927
-73.0438
-44.7453
-105.392
-74.3151
-57.2891
-33.5529
-27.7768
-112.706
-28.7765
-114.889
-33.6435
-131.534
-35.4524
-135.723
-135.699
-134.065
-139.492
-136.646
-155.347
-152.596
-159.73
-155.462
-110.52
-79.4875
-111.333
-80.2601
-128.042
-92.8866
-129.319
-94.6726
-70.1897
-35.3492
-18.3999
-81.0268
-5.32786
-38.4178
-21.5358
-96.5684
-5.72312
-42.4453
-106.647
-109.738
-57.9264
-63.5415
-121.696
-124.837
-64.9146
-73.592
-90.3351
-64.6297
-51.3768
-34.8519
-106.226
-78.1516
-63.9751
-46.2565
-38.4631
-15.1219
-2.97584
-13.5577
-0.281253
12.093
-1.83695
-13.3055
-2.86818
7.5823
-10.7799
-8.69494
41.7655
51.2089
-14.9096
-16.4631
34.0268
41.5389
-0.944676
4.23961
51.4305
43.6181
-7.76382
-2.15009
41.1636
35.0888
26.1096
19.6007
12.1676
64.732
24.4725
109.843
11.1805
58.0008
24.0117
99.216
104.611
109.274
150.06
146.53
90.917
95.4727
131.287
129.316
97.9155
77.0244
125.869
97.6737
85.0912
66.6102
109.898
87.4752
79.8095
45.1628
24.1638
108.658
11.3255
64.8334
22.8249
96.8973
10.0689
57.1413
147.8
145.611
100.626
108.367
128.229
128.239
85.8212
94.6797
126.508
99.9715
101.367
83.4444
110.901
92.392
89.8751
78.7387
79.2546
40.9145
-0.174667
19.5871
-2.68545
-0.907155
0.478436
17.1393
-1.70716
-1.81409
41.3121
55.1515
-0.850729
8.60935
33.3392
46.9074
-5.25082
4.60763
14.0112
32.3574
11.2558
-0.394709
-13.5639
-9.40914
12.1396
-2.46292
0.396982
0.781884
8.35284
-5.93315
-6.1559
1.1668
5.37961
-9.04328
-5.31445
-26.699
7.9673
-4.88682
3.35097
-16.3535
-13.6697
-24.6233
-17.9985
-6.82651
-29.3514
-17.1522
-71.3595
-0.93326
-10.1706
-6.68209
-37.8756
-40.2191
-61.3357
-90.4882
-103.322
-17.8369
-39.7884
-50.714
-68.9313
-65.8244
-40.6048
-96.3228
-69.223
-46.0166
-28.163
-70.7477
-52.4589
-54.8685
-33.6733
-26.5699
-105.814
-24.6908
-108.111
-10.5344
-56.489
-10.8335
-58.8069
-129.011
-133.659
-132.951
-136.401
-76.2327
-90.3557
-79.56
-92.6858
-117.978
-87.7491
-119.929
-90.3604
-88.8055
-68.9998
-90.9767
-71.7873
-69.5912
-38.6716
-14.717
-79.5948
-2.26769
-39.2051
-5.83509
-46.4677
1.02633
-21.2218
-101.168
-109.63
-53.5762
-65.2799
-59.6687
-74.4636
-28.9053
-44.239
-100.344
-76.3589
-66.6629
-50.5236
-76.7661
-61.2523
-52.3494
-41.8131
-44.4021
-22.9862
-1.1084
-13.3793
-17.442
23.4822
29.208
-5.29974
-12.8581
12.7425
16.6563
11.3276
7.42791
5.85774
8.52657
46.1626
18.9258
76.0173
4.34967
20.9835
8.39332
40.0149
66.655
71.8587
97.3812
98.4524
36.9346
43.7008
55.063
60.8263
66.2043
47.6105
81.3779
66.7833
42.9682
29.8648
55.9624
47.9725
48.6734
27
18.3361
73.5382
6.4385
43.4746
7.26266
41.2036
0.731603
25.4573
94.0842
97.4691
61.061
71.1272
52.9759
60.4365
34.0005
43.9404
52.2362
49.0454
24.0065
0.424254
21.0176
33.6082
-10.0673
-0.552983
10.0571
19.9518
-11.7421
-4.43227
0.00802062
16.3142
1.07243
0.706412
-19.4367
-14.0492
3.21231
-9.08143
0.0283504
3.75794
10.2909
0.67712
3.42614
0.747985
0.951624
9.16454
-7.57216
-4.00142
0.622296
-1.68892
-19.0776
-15.3055
-32.6154
7.9345
-1.56775
5.09985
-6.41991
-1.66447
-23.2226
-14.8583
-0.726293
-17.6466
0.219532
-19.3745
0.209427
0.506369
1.54087
-4.82634
-27.1825
-43.453
-30.0074
-45.1709
2.84778
-7.48121
0.357804
-8.49735
-13.8336
-31.7181
-19.96
-0.0236195
-21.245
-36.444
-6.55313
-21.4131
1.01628
-8.62343
6.21111
-5.01101
-10.6281
-21.4422
-13.3486
-0.480225
-0.075021
-7.37222
2.41876
5.73291
0.539006
-4.18613
-2.60414
-1.09435
1.26266
0.338278
0.306812
-1.80524
4.42512
0.372392
8.39085
0.859047
4.06457
-0.752367
-2.53421
11.0223
17.8038
17.4268
25.6816
-2.22362
-0.604591
-5.70847
0.141404
4.76293
16.5711
9.2151
0.582165
17.0571
26.108
12.6728
19.9188
-7.03138
1.18987
-3.35531
1.6799
3.35342
15.1811
4.71584
-0.76948
1.986
-10.0778
-0.17287
-10.3098
-0.0966629
1.32669
-12.805
-5.39285
-16.1069
-0.111275
-2.64123
13.727
5.57666
8.47797
-0.113949
2.45682
15.609
0.471762
3.12587
0.107829
2.54836
10.9833
-9.42328
-5.06849
-0.281066
9.9711
7.69552
-14.4713
-9.54514
-0.0534589
3.00789
4.95802
-9.62275
-6.62013
0.0115341
-2.16597
0.485289
0.156602
0.309943
0.66502
-10.2364
-6.92655
6.68826
3.74343
-0.153251
-7.4438
-7.60754
4.92313
-1.60585
-1.06991
5.89002
-10.5952
-4.37863
-13.6331
-0.574621
-1.77372
-12.576
-7.20111
-17.7018
SCALARS m0 double 1
LOOKUP_TABLE table1
0
0
0
0
0
0
0
0
0
0
0
0
0
0
0
0
0
0
0
0
0
0
0
0
0
0
0
0
0
0
0
0
0
0
0
0
0
0
0
0
0
0
0
0
0
0
0
0
0
0
0
0
0
0
0
0
0
0
0
0
0
0
0
0
0
0
0
0
0
0
0
0
0
0
0
0
0
0
0
0
0
0
0
0
0
0
0
0
0
0
0
0
0
0
0
0
0
0
0
0
0
0
0
0
0
0
0
0
0
0
0
0
0
0
0
0
0
0
0
0
0
0
0
0
0
0
0
0
0
0
0
0
0
0
0
0
0
0
0
0
0
0
0
0
0
0
0
0
0
0
0
0
0
0
0
0
0
0
0
0
0
0
0
0
0
0
0
0
0
0
0
0
0
0
0
0
0
0
0
0
0
0
0
0
0
0
0
0
0
0
0
0
0
0
0
0
0
0
0
0
0
0
0
0
0
0
0
0
0
0
0
0
0
0
0
0
0
0
0
0
0
0
0
0
0
0
0
0
0
0
0
0
0
0
0
0
0
0
0
0
0
0
0
0
0
0
0
0
0
0
0
0
0
0
0
0
0
0
0
0
0
0
0
0
0
0
0
0
0
0
0
0
0
0
0
0
0
0
0
0
0
0
0
0
0
0
0
0
0
0
0
0
0
0
0
0
0
0
0
0
0
0
0
0
0
0
0
0
0
0
0
0
0
0
0
0
0
0
0
0
0
0
0
0
0
0
0
0
0
0
0
0
0
0
0
0
0
0
0
0
0
0
0
0
0
0
0
0
0
0
0
0
0
0
0
0
0
0
0
0
0
0
0
0
0
0
0
0
0
0
0
0
0
0
0
0
0
0
0
0
0
0
0
0
0
0
0
0
0
0
0
0
0
0
0
0
0
0
0
0
0
0
0
0
0
0
0
0
0
0
0
0
0
0
0
0
0
0
0
0
0
0
0
0
0
0
0
0
0
0
0
0
0
0
0
0
0
0
0
0
0
0
0
0
0
0
0
0
0
0
0
0
0
0
0
0
0
0
0
0
0
0
0
0
0
0
0
0
0
0
0
0
0
0
0
0
0
0
0
0
0
0
0
0
0
0
0
0
0
0
0
0
0
0
0
0
0
0
0
0
0
0
0
0
0
0
0
0
0
0
0
0
0
0
0
0
0
0
0
0
0
0
0
0
0
0
0
0
0
0
0
0
0
0
0
0
0
0
0
0
0
0
0
0
0
0
0
0
0
0
0
0
0
0
0
0
0
0
0
0
0
0
0
0
0
0
0
0
0
0
0
0
0
0
0
0
0
0
0
0
0
0
0
0
0
0
0
0
0
0
0
0
0
0
0
0
0
0
0
0
0
0
0
0
0
0
0
0
0
0
0
0
0
0
0
0
0
0
0
0
0
0
0
0
0
0
0
0
0
0
0
0
0
0
0
0
0
0
0
0
0
0
0
0
0
0
0
0
0
0
0
0
0
0
0
0
0
0
0
0
0
0
0
0
0
0
0
0
0
0
0
0
0
0
0
0
0
0
0
0
0
0
0
0
0
0
0
0
0
0
0
0
0
0
0
0
0
0
0
0
0
0
0
0
0
0
0
0
0
0
0
0
0
0
0
0
0
0
0
0
0
0
0
0
0
0
0
0
0
0
0
0
0
0
0
0
0
0
0
0
0
0
0
0
0
0
0
0
0
0
0
0
0
0
0
0
0
0
0
0
0
0
0
0
0
0
0
0
0
0
0
0
0
0
0
0
0
0
0
0
0
0
0
0
0
0
0
0
0
0
0
0
0
0
0
0
0
0
0
0
0
0
0
0
0
0
0
0
0
0
0
0
0
0
0
0
0
0
0
0
0
0
0
0
0
0
0
0
0
0
0
0
0
0
0
0
0
0
0
0
0
0
0
0
0
0
0
0
0
0
0
0
0
0
0
0
0
0
0
0
0
0
0
0
0
0
0
0
0
0
0
0
0
0
0
0
0
0
0
0
0
0
0
0
0
0
0
0
0
0
0
0
0
0
0
0
0
0
0
0
0
0
0
0
0
0
0
0
0
0
0
0
0
0
0
0
0
0
0
0
0
0
0
0
0
0
0
0
0
0
0
0
0
0
0
0
0
0
0
0
0
0
0
0
0
0
0
0
0
0
0
0
0
0
0
0
0
0
0
0
0
0
0
0
0
0
0
0
0
0
0
0
0
0
0
0
0
0
0
0
0
0
0
0
0
0
0
0
0
0
0
0
0
0
0
0
0
0
0
0
0
0
0
0
0
0
0
0
0
0
0
0
0
0
0
0
0
0
0
0
0
0
0
0
0
0
0
0
0
0
0
0
0
0
0
0
0
0
0
0
0
0
0
0
0
0
0
0
0
0
0
0
0
0
0
0
0
0
0
0
0
0
0
0
0
0
0
0
0
0
0
0
0
0
0
0
0
0
0
0
0
0
0
0
0
0
0
0
0
0
0
0
0
0
0
0
0
0
0
0
0
0
0
0
0
0
0
0
0
0
0
0
0
0
0
0
0
0
0
0
0
0
0
0
0
0
0
0
0
0
0
0
0
0
0
0
0
0
0
0
0
0
0
0
0
0
0
0
0
0
0
0
0
0
0
0
0
0
0
0
0
0
0
0
0
0
0
0
0
0
0
0
0
0
0
0
0
0
0
0
0
0
0
0
0
0
0
0
0
0
0
0
0
0
0
0
0
0
0
0
SCALARS m0s double 1
LOOKUP_TABLE table2
0
0
0
0
0
0
0
0
0
0
0
0
0
0
0
0
0
0
0
0
0
0
0
0
0
0
0
0
0
0
0
0
0
0
0
0
0
0
0
0
0
0
0
0
0
0
0
0
0
0
0
0
0
0
0
0
0
0
0
0
0
0
0
0
0
0
0
0
0
0
0
0
0
0
0
0
0
0
0
0
0
0
0
0
0
0
0
0
0
0
0
0
0
0
0
0
0
0
0
0
0
0
0
0
0
0
0
0
0
0
0
0
0
0
0
0
0
0
0
0
0
0
0
0
0
0
0
0
0
0
0
0
0
0
0
0
0
0
0
0
0
0
0
0
0
0
0
0
0
0
0
0
0
0
0
0
0
0
0
0
0
0
0
0
0
0
0
0
0
0
0
0
0
0
0
0
0
0
0
0
0
0
0
0
0
0
0
0
0
0
0
0
0
0
0
0
0
0
0
0
0
0
0
0
0
0
0
0
0
0
0
0
0
0
0
0
0
0
0
0
0
0
0
0
0
0
0
0
0
0
0
0
0
0
0
0
0
0
0
0
0
0
0
0
0
0
0
0
0
0
0
0
0
0
0
0
0
0
0
0
0
0
0
0
0
0
0
0
0
0
0
0
0
0
0
0
0
0
0
0
0
0
0
0
0
0
0
0
0
0
0
0
0
0
0
0
0
0
0
0
0
0
0
0
0
0
0
0
0
0
0
0
0
0
0
0
0
0
0
0
0
0
0
0
0
0
0
0
0
0
0
0
0
0
0
0
0
0
0
0
0
0
0
0
0
0
0
0
0
0
0
0
0
0
0
0
0
0
0
0
0
0
0
0
0
0
0
0
0
0
0
0
0
0
0
0
0
0
0
0
0
0
0
0
0
0
0
0
0
0
0
0
0
0
0
0
0
0
0
0
0
0
0
0
0
0
0
0
0
0
0
0
0
0
0
0
0
0
0
0
0
0
0
0
0
0
0
0
0
0
0
0
0
0
0
0
0
0
0
0
0
0
0
0
0
0
0
0
0
0
0
0
0
0
0
0
0
0
0
0
0
0
0
0
0
0
0
0
0
0
0
0
0
0
0
0
0
0
0
0
0
0
0
0
0
0
0
0
0
0
0
0
0
0
0
0
0
0
0
0
0
0
0
0
0
0
0
0
0
0
0
0
0
0
0
0
0
0
0
0
0
0
0
0
0
0
0
0
0
0
0
0
0
0
0
0
0
0
0
0
0
0
0
0
0
0
0
0
0
0
0
0
0
0
0
0
0
0
0
0
0
0
0
0
0
0
0
0
0
0
0
0
0
0
0
0
0
0
0
0
0
0
0
0
0
0
0
0
0
0
0
0
0
0
0
0
0
0
0
0
0
0
0
0
0
0
0
0
0
0
0
0
0
0
0
0
0
0
0
0
0
0
0
0
0
0
0
0
0
0
0
0
0
0
0
0
0
0
0
0
0
0
0
0
0
0
0
0
0
0
0
0
0
0
0
0
0
0
0
0
0
0
0
0
0
0
0
0
0
0
0
0
0
0
0
0
0
0
0
0
0
0
0
0
0
0
0
0
0
0
0
0
0
0
0
0
0
0
0
0
0
0
0
0
0
0
0
0
0
0
0
0
0
0
0
0
0
0
0
0
0
0
0
0
0
0
0
0
0
0
0
0
0
0
0
0
0
0
0
0
0
0
0
0
0
0
0
0
0
0
0
0
0
0
0
0
0
0
0
0
0
0
0
0
0
0
0
0
0
0
0
0
0
0
0
0
0
0
0
0
0
0
0
0
0
0
0
0
0
0
0
0
0
0
0
0
0
0
0
0
0
0
0
0
0
0
0
0
0
0
0
0
0
0
0
0
0
0
0
0
0
0
0
0
0
0
0
0
0
0
0
0
0
0
0
0
0
0
0
0
0
0
0
0
0
0
0
0
0
0
0
0
0
0
0
0
0
0
0
0
0
0
0
0
0
0
0
0
0
0
0
0
0
0
0
0
0
0
0
0
0
0
0
0
0
0
0
0
0
0
0
0
0
0
0
0
0
0
0
0
0
0
0
0
0
0
0
0
0
0
0
0
0
0
0
0
0
0
0
0
0
0
0
0
0
0
0
0
0
0
0
0
0
0
0
0
0
0
0
0
0
0
0
0
0
0
0
0
0
0
0
0
0
0
0
0
0
0
0
0
0
0
0
0
0
0
0
0
0
0
0
0
0
0
0
0
0
0
0
0
0
0
0
0
0
0
0
0
0
0
0
0
0
0
0
0
0
0
0
0
0
0
0
0
0
0
0
0
0
0
0
0
0
0
0
0
0
0
0
0
0
0
0
0
0
0
0
0
0
0
0
0
0
0
0
0
0
0
0
0
0
0
0
0
0
0
0
0
0
0
0
0
0
0
0
0
0
0
0
0
0
0
0
0
0
0
0
0
0
0
0
0
0
0
0
0
0
0
0
0
0
0
0
0
0
0
0
0
0
0
0
0
0
0
0
0
0
0
0
0
0
0
0
0
0
0
0
0
0
0
0
0
0
0
0
0
0
0
0
0
0
0
0
0
0
0
0
0
0
0
0
0
0
0
0
0
0
0
0
0
0
0
0
0
0
0
0
0
0
0
0
0
0
0
0
0
0
0
0
0
0
0
0
0
0
0
0
0
0
0
0
0
0
0
0
0
0
0
0
0
0
0
0
0
0
0
0
0
0
0
0
0
0
0
0
0
0
0
0
0

POINT_DATA	1200
SCALARS model double 1
LOOKUP_TABLE table0
0.324739
0.121262
-13.4916
-12.0194
-15.6704
0.498864
1.11589
-11.4027
-7.30829
-10.9454
0.709947
-1.8219
-13.4918
-3.41966
-5.69413
0.914002
-7.27189
-18.1625
-2.97649
-3.28702
0.0927927
-0.161909
-19.6193
-5.54707
-4.60277
-0.225935
3.85463
-17.5681
-8.20689
-7.70539
-0.188059
1.47984
-12.26
-8.25806
-10.3359
-0.231467
3.27715
-3.4335
-6.35207
-12.3284
-0.0884615
3.46805
-0.28316
-7.11331
-15.0555
-0.0284716
4.1907
-6.34825
-10.9497
-17.4106
0.000492643
0.330219
-12.3116
-7.26943
-9.99108
0.617361
-5.80425
-10.5357
0.424778
-2.74035
0.868888
-12.5146
-5.06605
11.1402
6.54694
1.09654
-10.5333
-1.69583
16.2964
11.4183
0.379376
-10.4202
-9.66135
10.5811
8.80856
0.408874
-8.82193
-17.5454
0.674398
1.85388
-0.263674
-0.786929
-16.2693
-5.2873
-4.95084
-0.832257
3.84315
-10.622
-7.40321
-10.5302
-0.0368263
-2.02897
-7.52761
-9.09726
-15.4958
-0.176059
3.75738
-5.96877
-9.96913
-17.3694
-0.218713
-0.910709
-11.6229
-0.230508
-1.96579
-0.934712
-4.16347
1.86651
15.458
9.35064
2.74468
-9.1732
-5.22109
13.9969
14.9181
22.7438
25.971
57.4503
54.527
34.4841
39.8201
24.7548
-2.81226
15.3798
0.318653
13.8549
11.368
63.6857
10.9669
59.2352
26.4902
24.0339
24.1332
24.3867
82.2198
74.2347
80.5819
74.3372
56.1844
53.3181
33.5782
0.218138
11.3991
17.3397
-4.76462
1.78158
56.3106
56.0087
25.0707
28.9954
27.9083
42.2335
30.144
-2.87477
-16.2598
-6.14377
21.3031
19.4264
-1.19519
-17.5176
-16.1679
7.52477
8.19284
-0.726493
-5.63241
-13.2707
-0.406
-2.62582
-0.42341
2.67921
-10.5866
-7.22298
-13.1788
-0.122036
-0.629985
-7.71395
-8.306
-16.3584
0.453443
-16.8161
-11.1304
4.57091
3.03499
-0.251451
-9.91294
-8.11774
10.4727
16.1839
-4.72859
-2.14058
14.616
22.0394
17.1866
25.6732
15.7337
-1.52356
32.527
13.8912
80.6907
3.44917
39.4053
18.4032
89.7028
48.1577
50.5884
99.5659
90.9975
57.547
60.736
114.628
104.785
65.4053
24.7414
94.0488
52.6952
71.2494
34.8129
99.3588
61.7243
58.8181
33.6617
25.6721
112.763
23.7537
109.014
31.6743
129.162
29.2593
125.582
135.412
118.172
133.685
117.864
154.794
134.185
152.756
133.571
109.808
69.3605
107.742
77.0925
116.346
79.1987
113.943
85.6293
78.465
45.3049
12.3239
75.1871
-1.35725
28.6023
16.5195
83.7178
-0.905945
32.2416
97.1974
91.3115
47.6694
52.7958
110.657
104.384
54.5459
63.3786
70.6136
67.6879
44.7454
-6.72624
7.80917
18.187
-12.524
-1.37858
13.3422
29.9917
-3.721
14.2566
20.5886
46.8918
37.2872
-3.21116
-15.7848
-4.39356
-13.0158
-3.47497
-1.67394
13.9176
7.75413
17.1949
9.75815
34.9663
27.7048
-2.09238
-2.58796
6.52452
22.2774
13.2795
-1.17292
-10.1143
-8.95344
2.64075
-5.70744
-0.250786
-7.38082
-11.8947
-3.88205
-12.5183
0.224503
-4.65272
-2.71303
4.5212
1.64464
0.112851
-5.73408
-0.703406
-4.67082
-0.0588342
0.149432
-0.278884
-5.25645
-1.12922
0.969212
11.9733
19.0588
2.65765
-1.17628
5.8868
8.0632
14.8731
16.8481
8.82358
1.38043
23.4161
13.8955
68.0591
1.96603
11.3336
5.55189
32.2734
47.1058
51.0175
94.9818
87.9222
24.9531
25.4286
51.1615
45.7809
59.8926
31.8562
81.7192
52.2723
30.3209
14.4961
43.0691
26.8366
37.31
20.0573
25.1057
103.514
23.4541
101.732
10.4455
50.2943
10.6056
51.6759
129.327
112.625
127.745
111.997
69.8602
59.1723
68.8754
58.4821
95.4629
65.964
93.4049
70.0979
50.2622
34.4307
49.1707
37.4394
51.9636
30.2116
13.5937
66.1712
-1.40766
21.1113
3.75024
30.4859
-5.34813
1.8853
91.1893
87.5179
43.4209
54.9201
47.0591
45.1649
19.813
30.2928
75.7316
64.5597
59.0717
58.5491
41.8271
37.5568
36.0837
38.8114
54.124
37.601
-7.7714
12.7059
32.6751
7.62886
29.3059
9.16838
27.6511
23.2557
43.2692
39.7349
59.3381
44.3583
12.667
23.8508
40.7229
48.3715
53.0409
58.5427
71.149
95.3171
94.1896
67.7476
69.4964
46.1718
5.85215
38.9397
-1.10646
26.2969
14.8329
72.6876
5.59179
46.5583
58.5458
49.5217
41.6248
32.7371
101.812
94.179
71.7015
69.6044
65.4437
58.0742
32.7085
-2.28294
22.4391
15.7113
4.69506
-7.46424
32.6231
34.8739
4.34724
1.8617
10.4191
20.8451
5.32565
-1.17689
-14.5265
-11.1857
4.93627
-6.15706
0.34596
-6.45249
6.8057
0.023516
-4.30317
0.179097
4.48208
-5.58052
-0.943553
-6.44761
2.93393
-10.6079
-6.75139
-20.3981
-6.16036
-7.42993
-7.57578
-0.1884
1.67681
-0.125065
-0.768248
-1.20466
-14.4469
-5.12348
-37.0093
-0.727884
-7.62047
-1.28363
-9.17924
-25.8886
-39.9914
-53.966
-63.8085
-2.31332
-2.6186
-6.06611
-6.11886
-39.599
-26.102
-55.4212
-39.8957
-16.2377
-9.97397
-0.217671
-5.0023
-0.305346
-3.65664
-12.2318
-61.0544
-13.86
-61.538
-3.64204
-11.2549
-5.14583
-12.4393
-77.5024
-81.6727
-80.2112
-83.6153
-8.64843
-7.20967
-9.34686
-5.5327
-67.2417
-48.6963
-67.7886
-48.2109
-16.3323
-5.55445
-3.44406
-6.03832
-4.36892
-15.4632
-8.02229
-42.8122
-4.53847
-29.3101
-7.53904
-11.0722
-8.88019
-3.39495
-62.6966
-67.5548
-37.0276
-37.6486
-5.83753
0.496761
4.99736
12.1197
-53.9662
-36.4532
-26.5114
-14.0475
5.19724
10.9718
-5.1319
-16.9861
-4.08558
4.63001
-5.58933
-18.6576
-2.24492
8.38795
2.69087
16.9293
36.2827
52.8176