# vtk DataFile Version 3.0
Gravity inversion using rectangular prisms
ASCII
DATASET UNSTRUCTURED_GRID

POINTS	1200	double
100	100	100
100	100	300
100	100	500
100	100	700
100	100	900
100	300	100
100	300	300
100	300	500
100	300	700
100	300	900
100	500	100
100	500	300
100	500	500
100	500	700
100	500	900
100	700	100
100	700	300
100	700	500
100	700	700
100	700	900
100	900	100
100	900	300
100	900	500
100	900	700
100	900	900
100	1100	100
100	1100	300
100	1100	500
100	1100	700
100	1100	900
100	1300	100
100	1300	300
100	1300	500
100	1300	700
100	1300	900
100	1500	100
100	1500	300
100	1500	500
100	1500	700
100	1500	900
100	1700	100
100	1700	300
100	1700	500
100	1700	700
100	1700	900
100	1900	100
100	1900	300
100	1900	500
100	1900	700
100	1900	900
300	100	100
300	100	300
300	100	500
300	100	700
300	100	900
300	300	100
300	300	300
300	300	500
300	300	700
300	300	900
300	500	100
300	500	300
300	500	500
300	500	700
300	500	900
300	700	100
250	650	250
250	650	350
250	750	250
250	750	350
350	650	250
350	650	350
350	750	250
350	750	350
300	700	500
300	700	700
300	700	900
300	900	100
300	900	300
300	900	500
300	900	700
300	900	900
300	1100	100
300	1100	300
300	1100	500
300	1100	700
300	1100	900
300	1300	100
300	1300	300
300	1300	500
300	1300	700
300	1300	900
300	1500	100
300	1500	300
300	1500	500
300	1500	700
300	1500	900
300	1700	100
300	1700	300
300	1700	500
300	1700	700
300	1700	900
300	1900	100
300	1900	300
300	1900	500
300	1900	700
300	1900	900
500	100	100
500	100	300
500	100	500
500	100	700
500	100	900
500	300	100
500	300	300
500	300	500
500	300	700
500	300	900
500	500	100
450	450	250
450	450	350
450	550	250
450	550	350
550	450	250
550	450	350
550	550	250
550	550	350
500	500	500
500	500	700
500	500	900
450	650	50
450	650	150
450	750	50
450	750	150
550	650	50
550	650	150
550	750	50
550	750	150
450	650	250
450	650	350
450	750	250
450	750	350
550	650	250
550	650	350
550	750	250
550	750	350
500	700	500
500	700	700
500	700	900
500	900	100
450	850	250
450	850	350
450	950	250
450	950	350
550	850	250
550	850	350
550	950	250
550	950	350
500	900	500
500	900	700
500	900	900
500	1100	100
500	1100	300
500	1100	500
500	1100	700
500	1100	900
500	1300	100
500	1300	300
500	1300	500
500	1300	700
500	1300	900
500	1500	100
500	1500	300
500	1500	500
500	1500	700
500	1500	900
500	1700	100
500	1700	300
500	1700	500
500	1700	700
500	1700	900
500	1900	100
500	1900	300
500	1900	500
500	1900	700
500	1900	900
700	100	100
700	100	300
700	100	500
700	100	700
700	100	900
700	300	100
650	250	250
650	250	350
650	350	250
650	350	350
750	250	250
750	250	350
750	350	250
750	350	350
700	300	500
700	300	700
700	300	900
650	450	50
650	450	150
650	550	50
650	550	150
750	450	50
750	450	150
750	550	50
750	550	150
650	450	250
650	450	350
650	550	250
650	550	350
750	450	250
750	450	350
750	550	250
750	550	350
650	450	450
650	450	550
650	550	450
650	550	550
750	450	450
750	450	550
750	550	450
750	550	550
700	500	700
700	500	900
650	650	50
650	650	150
650	750	50
650	750	150
750	650	50
750	650	150
750	750	50
750	750	150
650	650	250
650	650	350
650	750	250
650	750	350
750	650	250
750	650	350
750	750	250
750	750	350
650	650	450
650	650	550
650	750	450
650	750	550
750	650	450
750	650	550
750	750	450
750	750	550
700	700	700
700	700	900
650	850	50
650	850	150
650	950	50
650	950	150
750	850	50
750	850	150
750	950	50
750	950	150
650	850	250
650	850	350
650	950	250
650	950	350
750	850	250
750	850	350
750	950	250
750	950	350
650	850	450
650	850	550
650	950	450
650	950	550
750	850	450
750	850	550
750	950	450
750	950	550
700	900	700
700	900	900
700	1100	100
650	1050	250
650	1050	350
650	1150	250
650	1150	350
750	1050	250
750	1050	350
750	1150	250
750	1150	350
700	1100	500
700	1100	700
700	1100	900
700	1300	100
650	1250	250
650	1250	350
650	1350	250
650	1350	350
750	1250	250
750	1250	350
750	1350	250
750	1350	350
700	1300	500
700	1300	700
700	1300	900
700	1500	100
650	1450	250
650	1450	350
650	1550	250
650	1550	350
750	1450	250
750	1450	350
750	1550	250
750	1550	350
700	1500	500
700	1500	700
700	1500	900
700	1700	100
700	1700	300
700	1700	500
700	1700	700
700	1700	900
700	1900	100
700	1900	300
700	1900	500
700	1900	700
700	1900	900
900	100	100
900	100	300
900	100	500
900	100	700
900	100	900
900	300	100
850	250	250
850	250	350
850	350	250
850	350	350
950	250	250
950	250	350
950	350	250
950	350	350
900	300	500
900	300	700
900	300	900
850	450	50
850	450	150
850	550	50
850	550	150
950	450	50
950	450	150
950	550	50
950	550	150
850	450	250
850	450	350
850	550	250
850	550	350
950	450	250
950	450	350
950	550	250
950	550	350
850	450	450
850	450	550
850	550	450
850	550	550
950	450	450
950	450	550
950	550	450
950	550	550
900	500	700
900	500	900
850	650	50
850	650	150
850	750	50
850	750	150
950	650	50
950	650	150
950	750	50
950	750	150
850	650	250
850	650	350
850	750	250
850	750	350
950	650	250
950	650	350
950	750	250
950	750	350
850	650	450
850	650	550
850	750	450
850	750	550
950	650	450
950	650	550
950	750	450
950	750	550
900	700	700
900	700	900
850	850	50
850	850	150
850	950	50
850	950	150
950	850	50
950	850	150
950	950	50
950	950	150
850	850	250
850	850	350
850	950	250
850	950	350
950	850	250
950	850	350
950	950	250
950	950	350
850	850	450
850	850	550
850	950	450
850	950	550
950	850	450
950	850	550
950	950	450
950	950	550
900	900	700
900	900	900
900	1100	100
850	1050	250
850	1050	350
850	1150	250
850	1150	350
950	1050	250
950	1050	350
950	1150	250
950	1150	350
900	1100	500
900	1100	700
900	1100	900
850	1250	50
850	1250	150
850	1350	50
850	1350	150
950	1250	50
950	1250	150
950	1350	50
950	1350	150
850	1250	250
850	1250	350
850	1350	250
850	1350	350
950	1250	250
950	1250	350
950	1350	250
950	1350	350
900	1300	500
900	1300	700
900	1300	900
850	1450	50
850	1450	150
850	1550	50
850	1550	150
950	1450	50
950	1450	150
950	1550	50
950	1550	150
850	1450	250
850	1450	350
850	1550	250
850	1550	350
950	1450	250
950	1450	350
950	1550	250
950	1550	350
900	1500	500
900	1500	700
900	1500	900
900	1700	100
850	1650	250
850	1650	350
850	1750	250
850	1750	350
950	1650	250
950	1650	350
950	1750	250
950	1750	350
900	1700	500
900	1700	700
900	1700	900
900	1900	100
900	1900	300
900	1900	500
900	1900	700
900	1900	900
1100	100	100
1100	100	300
1100	100	500
1100	100	700
1100	100	900
1100	300	100
1050	250	250
1050	250	350
1050	350	250
1050	350	350
1150	250	250
1150	250	350
1150	350	250
1150	350	350
1100	300	500
1100	300	700
1100	300	900
1100	500	100
1050	450	250
1050	450	350
1050	550	250
1050	550	350
1150	450	250
1150	450	350
1150	550	250
1150	550	350
1050	450	450
1050	450	550
1050	550	450
1050	550	550
1150	450	450
1150	450	550
1150	550	450
1150	550	550
1100	500	700
1100	500	900
1050	650	50
1050	650	150
1050	750	50
1050	750	150
1150	650	50
1150	650	150
1150	750	50
1150	750	150
1050	650	250
1050	650	350
1050	750	250
1050	750	350
1150	650	250
1150	650	350
1150	750	250
1150	750	350
1050	650	450
1050	650	550
1050	750	450
1050	750	550
1150	650	450
1150	650	550
1150	750	450
1150	750	550
1100	700	700
1100	700	900
1100	900	100
1050	850	250
1050	850	350
1050	950	250
1050	950	350
1150	850	250
1150	850	350
1150	950	250
1150	950	350
1050	850	450
1050	850	550
1050	950	450
1050	950	550
1150	850	450
1150	850	550
1150	950	450
1150	950	550
1100	900	700
1100	900	900
1050	1050	50
1050	1050	150
1050	1150	50
1050	1150	150
1150	1050	50
1150	1050	150
1150	1150	50
1150	1150	150
1050	1050	250
1050	1050	350
1050	1150	250
1050	1150	350
1150	1050	250
1150	1050	350
1150	1150	250
1150	1150	350
1050	1050	450
1050	1050	550
1050	1150	450
1050	1150	550
1150	1050	450
1150	1050	550
1150	1150	450
1150	1150	550
1100	1100	700
1100	1100	900
1050	1250	50
1050	1250	150
1050	1350	50
1050	1350	150
1150	1250	50
1150	1250	150
1150	1350	50
1150	1350	150
1050	1250	250
1050	1250	350
1050	1350	250
1050	1350	350
1150	1250	250
1150	1250	350
1150	1350	250
1150	1350	350
1050	1250	450
1050	1250	550
1050	1350	450
1050	1350	550
1150	1250	450
1150	1250	550
1150	1350	450
1150	1350	550
1100	1300	700
1100	1300	900
1050	1450	50
1050	1450	150
1050	1550	50
1050	1550	150
1150	1450	50
1150	1450	150
1150	1550	50
1150	1550	150
1050	1450	250
1050	1450	350
1050	1550	250
1050	1550	350
1150	1450	250
1150	1450	350
1150	1550	250
1150	1550	350
1050	1450	450
1050	1450	550
1050	1550	450
1050	1550	550
1150	1450	450
1150	1450	550
1150	1550	450
1150	1550	550
1100	1500	700
1100	1500	900
1050	1650	50
1050	1650	150
1050	1750	50
1050	1750	150
1150	1650	50
1150	1650	150
1150	1750	50
1150	1750	150
1050	1650	250
1050	1650	350
1050	1750	250
1050	1750	350
1150	1650	250
1150	1650	350
1150	1750	250
1150	1750	350
1100	1700	500
1100	1700	700
1100	1700	900
1100	1900	100
1100	1900	300
1100	1900	500
1100	1900	700
1100	1900	900
1300	100	100
1300	100	300
1300	100	500
1300	100	700
1300	100	900
1300	300	100
1250	250	250
1250	250	350
1250	350	250
1250	350	350
1350	250	250
1350	250	350
1350	350	250
1350	350	350
1300	300	500
1300	300	700
1300	300	900
1250	450	50
1250	450	150
1250	550	50
1250	550	150
1350	450	50
1350	450	150
1350	550	50
1350	550	150
1250	450	250
1250	450	350
1250	550	250
1250	550	350
1350	450	250
1350	450	350
1350	550	250
1350	550	350
1250	450	450
1250	450	550
1250	550	450
1250	550	550
1350	450	450
1350	450	550
1350	550	450
1350	550	550
1300	500	700
1300	500	900
1250	650	50
1250	650	150
1250	750	50
1250	750	150
1350	650	50
1350	650	150
1350	750	50
1350	750	150
1250	650	250
1250	650	350
1250	750	250
1250	750	350
1350	650	250
1350	650	350
1350	750	250
1350	750	350
1250	650	450
1250	650	550
1250	750	450
1250	750	550
1350	650	450
1350	650	550
1350	750	450
1350	750	550
1250	650	650
1250	650	750
1250	750	650
1250	750	750
1350	650	650
1350	650	750
1350	750	650
1350	750	750
1300	700	900
1250	850	50
1250	850	150
1250	950	50
1250	950	150
1350	850	50
1350	850	150
1350	950	50
1350	950	150
1250	850	250
1250	850	350
1250	950	250
1250	950	350
1350	850	250
1350	850	350
1350	950	250
1350	950	350
1250	850	450
1250	850	550
1250	950	450
1250	950	550
1350	850	450
1350	850	550
1350	950	450
1350	950	550
1300	900	700
1300	900	900
1250	1050	50
1250	1050	150
1250	1150	50
1250	1150	150
1350	1050	50
1350	1050	150
1350	1150	50
[...]
CELL_DATA	1200
SCALARS model double 1
LOOKUP_TABLE table0
0.195038
-3.21398
-8.24828
-5.16528
-2.8393
0.490069
-3.21596
-7.63278
-3.92727
-1.60984
0.498311
-8.36903
-7.92801
-2.38964
-0.125096
0.401187
-11.4627
-7.84887
-1.5299
0.736505
0.164828
-9.22803
-8.3535
-2.08606
0.539756
0.454606
-7.62356
-8.58135
-3.16394
-0.311405
0.494334
-5.69001
-7.25626
-3.62295
-1.20794
0.201042
-2.9653
-5.11556
-3.70443
-2.09221
0.0796657
0.0848783
-4.8359
-4.73004
-3.36799
0.0900706
-1.13359
-7.08008
-6.20216
-4.43137
-0.36215
-0.250347
-6.59146
-3.38958
-1.33404
-0.357925
-4.58285
-3.70608
0.495784
1.47622
-1.56091
-4.77665
4.11375
6.77395
5.08624
-1.82286
-4.20524
-6.0994
-2.24419
-4.18187
9.14344
11.1742
8.88764
11.1943
10.5489
10.5774
7.22264
-1.82749
-4.64818
4.77503
8.05204
6.59239
-0.577723
-9.94767
-3.5395
2.92719
4.33156
-0.449021
-6.18619
-5.60091
-0.209621
2.11761
-0.603484
-1.65799
-4.24784
-1.65159
0.195197
-0.0186584
1.25849
-4.25529
-3.69034
-2.08591
0.0797864
0.874476
-6.12909
-5.54941
-3.74419
-0.996628
-3.56852
-6.50977
-1.4039
0.327169
-3.35709
3.17423
6.41451
7.85091
5.31568
1.08151
8.16981
10.0605
30.1439
30.2574
41.1231
40.388
71.4816
67.1031
34.2969
23.1083
11.9082
-3.74066
16.8158
-1.02345
18.0537
10.0231
58.3511
10.4568
56.212
41.4793
42.4815
40.2701
41.6354
92.2896
85.5786
90.2504
83.8615
52.3749
32.1035
15.8941
-0.845185
28.2567
28.5637
10.8512
12.8487
67.5071
63.1199
38.0958
37.685
35.422
26.2091
14.949
-5.72054
-6.34301
10.2375
14.704
11.3243
-3.34218
-13.1707
0.32252
7.70789
7.868
-1.44691
-10.2154
-1.91799
3.66138
4.56984
-0.157829
-5.53149
-5.75958
-1.65362
0.347705
0.623108
-6.43508
-8.67852
-5.10575
-2.57988
-1.02969
-7.54838
-6.96322
-0.418162
1.02584
-3.37008
4.44138
4.3469
30.157
31.8276
8.6201
13.2595
35.2176
42.3935
14.7352
12.518
7.00909
-2.36956
30.4725
12.2691
72.9667
1.33327
40.8619
16.1156
84.1084
67.5871
67.5734
111.372
104.086
78.3984
82.9242
127.216
123.465
38.65
35.6537
52.1976
45.171
39.8494
36.5308
53.4477
45.969
33.5808
15.0249
22.8911
102.293
22.3717
99.6436
27.753
118.297
27.0485
115.825
139.85
128.704
136.779
125.807
158.736
149.893
155.12
145.937
62.9638
54.5374
62.5382
54.3183
63.6476
54.6664
63.2165
54.4795
46.048
20.2259
12.1795
68.2322
-0.274379
26.9845
15.9982
79.6019
1.5654
35.079
104.446
96.6158
60.8833
59.1684
118.705
113.174
70.8359
71.9033
51.4645
44.7004
40.871
38.8809
52.8058
45.769
42.2727
40.181
39.8063
20.2717
-9.30867
25.2312
23.944
5.9367
4.7805
35.2424
37.5961
21.1422
21.9696
28.7205
28.4664
17.9687
-5.74888
1.18924
1.50263
1.01568
2.01809
22.2075
22.2578
26.4468
25.9044
25.6788
23.2817
15.629
-3.4027
0.717549
2.64965
-2.18786
0.412624
25.3685
25.6869
17.3226
19.0382
19.6915
17.2649
11.6247
-1.18324
-5.40894
0.450078
4.54221
4.49087
0.612768
-12.4384
-9.14531
-3.22895
-0.652124
-0.15203
-6.66786
-7.34203
-1.40582
0.123253
-3.08794
6.3244
16.4494
29.7268
43.4937
0.520251
11.6781
16.2651
29.9586
9.06763
7.53315
4.18626
-1.36736
33.6683
11.9434
69.9837
-2.24515
22.0742
5.03457
45.1092
67.294
79.8187
109.05
114.829
38.6546
51.3065
60.5678
69.7526
34.1335
31.2642
45.3902
38.9253
19.9755
20.3523
27.0393
25.6622
21.228
9.59901
22.3364
100.011
21.9052
98.6554
10.7599
57.6236
11.4738
58.394
135.929
136.61
132.905
132.283
73.9874
79.8054
72.6324
76.6239
53.5859
45.6846
53.345
45.7458
31.302
29.5237
31.3317
29.792
29.8391
13.9785
12.6351
66.9194
-0.180377
26.9713
5.60447
43.2256
-3.75685
13.5464
101.72
103.682
61.7733
69.25
56.0741
61.8452
35.8618
46.8151
45.5542
39.9793
38.2758
37.0675
28.3307
27.961
26.4005
28.1569
30.5983
16.9902
-8.90172
37.01
44.5449
35.8998
39.3156
30.7523
42.6536
47.8578
54.3939
39.2755
34.4414
20.4006
-4.80205
18.6745
2.68114
40.3901
2.30004
43.6747
12.9693
71.0172
49.7913
49.1616
62.5433
58.6349
77.8844
76.6472
100.939
92.5785
61.653
42.5858
22.9296
4.29335
42.3071
0.214463
26.7668
13.8841
73.0584
7.45575
50.2113
61.2764
57.9607
44.5963
44.2167
99.6431
91.2695
73.2428
70.2222
57.6437
37.9107
19.8187
-1.53573
22.0776
20.6067
-1.12527
-4.59054
36.5642
36.4812
5.36857
4.56865
16.96
15.1206
9.6539
-0.404185
-15.6586
-4.11653
0.933959
1.85796
0.756788
-1.27506
-4.27486
-2.92715
-1.62505
1.21597
-0.843443
3.92898
0.84059
4.43184
-0.926991
-6.87629
-14.2166
-21.8049
-5.77285
-4.01147
-1.66324
-1.62178
-0.160075
1.27848
-7.36331
-5.55687
-42.0598
-49.4254
-78.6932
-81.6883
-3.07885
-4.88996
-5.4327
-6.96208
-23.4867
-20.9633
-31.9022
-26.3894
-8.48109
-1.98442
0.266251
6.80998
0.76715
6.21792
-12.7699
-50.7
-12.9255
-48.9912
-13.0947
-12.8136
-13.0887
-14.0414
-104.125
-106.946
-104.802
-107.851
-7.60053
-9.34306
-7.01644
-8.36346
-39.7385
-32.9294
-39.1431
-31.8872
-10.0611
-0.305755
-6.78408
-9.89232
-7.86189
-2.37845
6.11495
-82.5907
-82.5473
-46.1768
-40.717
-2.22036
-1.52345
5.24407
5.70338
-28.2754
-20.325
-13.1463
-8.82218
1.53755
6.26123
-8.45035
-3.96292
-4.23586
18.736
-7.02312
1.04048
-1.29414
25.3749
17.2827
31.1439
54.3456
64.4251
-0.53026
12.4064
54.5573
65.6363
20.3971
22.8748
37.2548
35.0829
11.3398
15.6324
32.8786
30.7999
28.1597
17.1535
7.69716
61.4564
21.0761
98.5624
12.2273
73.5689
25.6999
111.926
100.206
100.078
132.305
121.814
112.047
112.524
149.619
138.448
55.5612
50.9735
65.4573
57.028
55.2893
50.368
66.6365
57.4621
53.913
25.9715
22.5787
100.661
11.6327
67.1636
25.935
112.481
13.4172
75.6989
130.891
119.495
96.2684
91.9761
147.685
135.212
108.511
103.737
64.8415
55.8295
56.972
51.653
66.7498
57.0453
58.3799
52.646
52.9766
24.914
-0.149267
26.2182
-5.12318
2.36171
1.31045
29.3039
-4.00088
4.53767
48.2991
49.0226
8.24377
9.11047
54.7223
55.6483
10.4867
11.8709
23.7389
23.3248
13.1488
-0.97351
-13.6583
-0.610985
4.6355
3.6514
1.42109
4.42919
0.612742
-2.98493
-2.6017
4.25544
-2.31171
-13.1192
-28.8841
-42.7238
-6.44064
-15.3219
-36.1215
-48.2777
-15.6014
-11.6266
-5.96666
0.117481
-15.9479
-14.8714
-62.0577
-3.27024
-24.7636
-16.9727
-68.1288
-75.6934
-89.1231
-132.16
-140.138
-87.7344
-99.5362
-149.132
-155.635
-41.3228
-40.7874
-57.106
-52.2337
-47.4823
-45.847
-64.7923
-58.2997
-27.7966
-10.9513
-24.0804
-92.8929
-25.162
-94.6465
-27.3496
-103.437
-28.806
-106.261
-171.628
-179.781
-173.946
-182.018
-192.902
-199.796
-195.822
-203.852
-70.0983
-64.1133
-69.7233
-63.2518
-79.4397
-71.6868
-79.2508
-71.0221
-24.1845
-21.5973
-23.6181
-21.2027
-26.9373
-24.2768
-26.2948
-23.8371
-11.8379
-17.4493
-70.3221
-3.43703
-27.6502
-18.7572
-74.873
-3.61726
-29.9351
-138.091
-143.927
-79.5755
-82.5682
-155.175
-164.09
-89.5826
-98.7977
-54.0892
-46.8515
-32.4512
-30.361
-62.5091
-53.9613
-39.389
-36.6894
-20.114
-3.76266
-3.49667
-1.55947
1.54388
28.1772
-0.207551
-0.542528
1.17711
24.8877
-15.6405
-9.2716
49.7075
57.7984
-22.2381
-21.427
41.209
47.1334
0.15018
3.34724
26.6396
23.1172
-5.18888
-1.43123
21.4694
18.6746
16.3613
10.9084
14.4649
76.795
26.1177
112.828
13.6461
68.3192
24.2256
101.766
111.845
111.978
150.452
140.217
99.4606
100.73
134.876
127.667
52.6988
47.6357
65.5271
56.4326
47.3078
43.6366
59.9392
52.7055
49.3402
22.8533
26.0221
111.677
14.204
74.9226
23.3245
99.4131
12.4703
64.4568
147.885
136.47
108.161
104.057
131.793
123.376
95.3938
92.9206
66.4221
57.0891
58.1633
52.8277
62.4273
55.7545
55.4063
52.1645
51.0591
23.4554
1.79176
28.7412
-3.32082
4.75687
1.88351
24.2535
-2.45376
3.30683
54.3796
55.4444
10.4282
11.6683
47.1872
48.3281
7.53712
8.18571
22.3283
22.4818
12.5138
-0.675673
-13.3403
-0.804498
4.42403
3.37158
1.38415
2.08047
3.69772
-1.07131
-1.879
5.11347
-7.88116
-11.0064
-31.8401
-38.2415
-5.84781
-5.48865
-21.1186
-24.4901
-11.0961
-9.65112
-5.68635
-2.60755
-17.9215
-13.1966
-51.0396
2.18753
-1.51964
-4.56358
-23.8836
-75.3322
-81.4805
-127.843
-129.989
-48.8789
-53.168
-84.45
-87.6123
-42.7828
-41.091
-58.5556
-52.6856
-34.3374
-35.4659
-47.1692
-45.592
-26.6459
-11.2648
-21.6647
-79.9405
-21.3866
-81.2868
-9.06838
-38.3865
-9.64734
-39.1751
-165.916
-169.196
-168.483
-174.761
-110.547
-116.84
-112.395
-122.244
-72.2622
-65.6457
-72.4738
-65.6291
-58.6351
-57.3782
-58.8502
-57.4665
-34.7617
-13.045
-13.2498
-54.953
-1.32268
-22.6182
-5.08991
-26.9468
1.87463
-6.66158
-132.626
-142.847
-75.8802
-87.8905
-87.6619
-100.51
-48.5196
-61.4358
-57.9365
-51.3667
-37.794
-36.5276
-47.1825
-45.285
-31.4483
-32.8774
-22.4262
-6.64063
1.78264
-19.813
-21.8957
30.7143
35.9269
-11.7473
-14.0445
19.8342
26.5531
-7.63666
-5.30195
15.1211
12.1042
-7.08527
-5.68804
10.4708
8.81824
6.95414
5.40765
10.1366
51.9125
18.5125
76.5288
5.21963
27.3025
10.1755
45.8422
77.0734
80.7278
105.243
102.567
49.7718
57.4968
68.4034
71.6714
37.4956
34.3534
48.0942
43.1505
28.5552
28.3041
37.4255
36.186
31.4478
15.1743
17.7461
73.7584
8.86836
48.4643
8.85233
44.0661
3.41547
27.9394
102.019
97.883
72.5777
72.2475
65.7383
66.8247
45.8274
48.1373
48.7354
33.0883
16.0352
-0.0935531
34.8385
35.9439
3.91912
3.75076
21.1088
22.5028
-0.334007
-1.1355
12.947
13.0578
7.94593
0.353236
-14.5528
-4.67586
0.333065
1.04865
0.859221
0.344734
6.12404
2.0468
0.196946
2.85599
-1.43562
4.22057
-0.953447
-1.70348
4.17544
-23.9006
-24.3104
-41.3412
-43.6462
-4.25925
-1.62261
-12.1532
-12.2113
-3.71663
-7.98658
-4.73395
0.601443
-4.37024
1.02219
-4.133
2.66859
8.40281
3.28043
8.08002
-54.4727
-60.8959
-55.4942
-64.6982
-15.7549
-19.1447
-16.2567
-21.3725
-11.2355
-12.3774
-6.0331
3.10903
-43.0452
-52.7758
-22.5301
-30.1588
-13.1252
-17.6177
-6.10045
-7.80591
-7.64627
-8.26733
-3.39131
1.07066
-4.59214
-3.37519
9.56286
18.6388
-3.07808
0.211184
0.545698
8.4931
-0.762671
1.60548
1.9344
-0.290103
23.9813
34.0181
33.5651
39.902
3.69233
11.1105
6.80856
11.688
5.7775
9.82892
6.20437
-0.180016
32.3583
35.5078
22.7361
24.7677
7.2567
9.53518
4.56639
4.90514
9.59819
9.95153
6.24097
-0.34023
-1.91047
-2.32681
1.19674
1.73163
0.676405
-6.67458
-9.04266
-4.68609
-2.14188
0.655211
-4.33026
4.74959
2.91962
1.41851
1.0547
-2.47023
6.15328
2.64647
0.902413
1.633
-0.521778
5.82792
0.630585
-0.286239
1.62752
0.504238
3.96507
-1.32885
-1.10562
1.39699
0.612827
1.13476
-1.58495
-0.711942
0.900167
-5.21183
-4.64027
-0.688217
0.567879
0.55465
-9.75967
-6.94863
0.559146
1.58821
-0.542093
-4.87362
-3.57663
0.409866
1.11849
-0.489045
0.392052
-5.83099
-3.2144
-1.38584
-0.165856
-2.31849
-8.88428
-6.03238
-3.52528
SCALARS m0 double 1
LOOKUP_TABLE table1
0
0
0
0
0
0
0
0
0
0
0
0
0
0
0
0
0
0
0
0
0
0
0
0
0
0
0
0
0
0
0
0
0
0
0
0
0
0
0
0
0
0
0
0
0
0
0
0
0
0
0
0
0
0
0
0
0
0
0
0
0
0
0
0
0
0
0
0
0
0
0
0
0
0
0
0
0
0
0
0
0
0
0
0
0
0
0
0
0
0
0
0
0
0
0
0
0
0
0
0
0
0
0
0
0
0
0
0
0
0
0
0
0
0
0
0
0
0
0
0
0
0
0
0
0
0
0
0
0
0
0
0
0
0
0
0
0
0
0
0
0
0
0
0
0
0
0
0
0
0
0
0
0
0
0
0
0
0
0
0
0
0
0
0
0
0
0
0
0
0
0
0
0
0
0
0
0
0
0
0
0
0
0
0
0
0
0
0
0
0
0
0
0
0
0
0
0
0
0
0
0
0
0
0
0
0
0
0
0
0
0
0
0
0
0
0
0
0
0
0
0
0
0
0
0
0
0
0
0
0
0
0
0
0
0
0
0
0
0
0
0
0
0
0
0
0
0
0
0
0
0
0
0
0
0
0
0
0
0
0
0
0
0
0
0
0
0
0
0
0
0
0
0
0
0
0
0
0
0
0
0
0
0
0
0
0
0
0
0
0
0
0
0
0
0
0
0
0
0
0
0
0
0
0
0
0
0
0
0
0
0
0
0
0
0
0
0
0
0
0
0
0
0
0
0
0
0
0
0
0
0
0
0
0
0
0
0
0
0
0
0
0
0
0
0
0
0
0
0
0
0
0
0
0
0
0
0
0
0
0
0
0
0
0
0
0
0
0
0
0
0
0
0
0
0
0
0
0
0
0
0
0
0
0
0
0
0
0
0
0
0
0
0
0
0
0
0
0
0
0
0
0
0
0
0
0
0
0
0
0
0
0
0
0
0
0
0
0
0
0
0
0
0
0
0
0
0
0
0
0
0
0
0
0
0
0
0
0
0
0
0
0
0
0
0
0
0
0
0
0
0
0
0
0
0
0
0
0
0
0
0
0
0
0
0
0
0
0
0
0
0
0
0
0
0
0
0
0
0
0
0
0
0
0
0
0
0
0
0
0
0
0
0
0
0
0
0
0
0
0
0
0
0
0
0
0
0
0
0
0
0
0
0
0
0
0
0
0
0
0
0
0
0
0
0
0
0
0
0
0
0
0
0
0
0
0
0
0
0
0
0
0
0
0
0
0
0
0
0
0
0
0
0
0
0
0
0
0
0
0
0
0
0
0
0
0
0
0
0
0
0
0
0
0
0
0
0
0
0
0
0
0
0
0
0
0
0
0
0
0
0
0
0
0
0
0
0
0
0
0
0
0
0
0
0
0
0
0
0
0
0
0
0
0
0
0
0
0
0
0
0
0
0
0
0
0
0
0
0
0
0
0
0
0
0
0
0
0
0
0
0
0
0
0
0
0
0
0
0
0
0
0
0
0
0
0
0
0
0
0
0
0
0
0
0
0
0
0
0
0
0
0
0
0
0
0
0
0
0
0
0
0
0
0
0
0
0
0
0
0
0
0
0
0
0
0
0
0
0
0
0
0
0
0
0
0
0
0
0
0
0
0
0
0
0
0
0
0
0
0
0
0
0
0
0
0
0
0
0
0
0
0
0
0
0
0
0
0
0
0
0
0
0
0
0
0
0
0
0
0
0
0
0
0
0
0
0
0
0
0
0
0
0
0
0
0
0
0
0
0
0
0
0
0
0
0
0
0
0
0
0
0
0
0
0
0
0
0
0
0
0
0
0
0
0
0
0
0
0
0
0
0
0
0
0
0
0
0
0
0
0
0
0
0
0
0
0
0
0
0
0
0
0
0
0
0
0
0
0
0
0
0
0
0
0
0
0
0
0
0
0
0
0
0
0
0
0
0
0
0
0
0
0
0
0
0
0
0
0
0
0
0
0
0
0
0
0
0
0
0
0
0
0
0
0
0
0
0
0
0
0
0
0
0
0
0
0
0
0
0
0
0
0
0
0
0
0
0
0
0
0
0
0
0
0
0
0
0
0
0
0
0
0
0
0
0
0
0
0
0
0
0
0
0
0
0
0
0
0
0
0
0
0
0
0
0
0
0
0
0
0
0
0
0
0
0
0
0
0
0
0
0
0
0
0
0
0
0
0
0
0
0
0
0
0
0
0
0
0
0
0
0
0
0
0
0
0
0
0
0
0
0
0
0
0
0
0
0
0
0
0
0
0
0
0
0
0
0
0
0
0
0
0
0
0
0
0
0
0
0
0
0
0
0
0
0
0
0
0
0
0
0
0
0
0
0
0
0
0
0
0
0
0
0
0
0
0
0
0
0
0
0
0
0
0
0
0
0
0
0
0
0
0
0
0
0
0
0
0
0
0
0
0
0
0
0
0
0
0
0
0
0
0
0
0
0
0
0
0
0
0
0
0
0
0
0
0
0
0
0
0
0
0
0
0
0
0
0
0
0
0
0
0
0
0
0
0
0
0
0
0
0
0
0
0
0
0
0
0
0
0
0
0
0
0
0
0
0
0
0
0
0
0
0
0
0
0
0
0
0
0
0
0
0
0
0
0
0
0
0
0
0
0
0
0
0
0
0
0
0
0
0
0
0
0
0
0
0
0
0
0
0
0
0
0
0
0
0
0
0
0
0
0
0
0
0
0
0
0
0
0
0
0
0
0
0
0
0
0
0
SCALARS m0s double 1
LOOKUP_TABLE table2
0
0
0
0
0
0
0
0
0
0
0
0
0
0
0
0
0
0
0
0
0
0
0
0
0
0
0
0
0
0
0
0
0
0
0
0
0
0
0
0
0
0
0
0
0
0
0
0
0
0
0
0
0
0
0
0
0
0
0
0
0
0
0
0
0
0
0
0
0
0
0
0
0
0
0
0
0
0
0
0
0
0
0
0
0
0
0
0
0
0
0
0
0
0
0
0
0
0
0
0
0
0
0
0
0
0
0
0
0
0
0
0
0
0
0
0
0
0
0
0
0
0
0
0
0
0
0
0
0
0
0
0
0
0
0
0
0
0
0
0
0
0
0
0
0
0
0
0
0
0
0
0
0
0
0
0
0
0
0
0
0
0
0
0
0
0
0
0
0
0
0
0
0
0
0
0
0
0
0
0
0
0
0
0
0
0
0
0
0
0
0
0
0
0
0
0
0
0
0
0
0
0
0
0
0
0
0
0
0
0
0
0
0
0
0
0
0
0
0
0
0
0
0
0
0
0
0
0
0
0
0
0
0
0
0
0
0
0
0
0
0
0
0
0
0
0
0
0
0
0
0
0
0
0
0
0
0
0
0
0
0
0
0
0
0
0
0
0
0
0
0
0
0
0
0
0
0
0
0
0
0
0
0
0
0
0
0
0
0
0
0
0
0
0
0
0
0
0
0
0
0
0
0
0
0
0
0
0
0
0
0
0
0
0
0
0
0
0
0
0
0
0
0
0
0
0
0
0
0
0
0
0
0
0
0
0
0
0
0
0
0
0
0
0
0
0
0
0
0
0
0
0
0
0
0
0
0
0
0
0
0
0
0
0
0
0
0
0
0
0
0
0
0
0
0
0
0
0
0
0
0
0
0
0
0
0
0
0
0
0
0
0
0
0
0
0
0
0
0
0
0
0
0
0
0
0
0
0
0
0
0
0
0
0
0
0
0
0
0
0
0
0
0
0
0
0
0
0
0
0
0
0
0
0
0
0
0
0
0
0
0
0
0
0
0
0
0
0
0
0
0
0
0
0
0
0
0
0
0
0
0
0
0
0
0
0
0
0
0
0
0
0
0
0
0
0
0
0
0
0
0
0
0
0
0
0
0
0
0
0
0
0
0
0
0
0
0
0
0
0
0
0
0
0
0
0
0
0
0
0
0
0
0
0
0
0
0
0
0
0
0
0
0
0
0
0
0
0
0
0
0
0
0
0
0
0
0
0
0
0
0
0
0
0
0
0
0
0
0
0
0
0
0
0
0
0
0
0
0
0
0
0
0
0
0
0
0
0
0
0
0
0
0
0
0
0
0
0
0
0
0
0
0
0
0
0
0
0
0
0
0
0
0
0
0
0
0
0
0
0
0
0
0
0
0
0
0
0
0
0
0
0
0
0
0
0
0
0
0
0
0
0
0
0
0
0
0
0
0
0
0
0
0
0
0
0
0
0
0
0
0
0
0
0
0
0
0
0
0
0
0
0
0
0
0
0
0
0
0
0
0
0
0
0
0
0
0
0
0
0
0
0
0
0
0
0
0
0
0
0
0
0
0
0
0
0
0
0
0
0
0
0
0
0
0
0
0
0
0
0
0
0
0
0
0
0
0
0
0
0
0
0
0
0
0
0
0
0
0
0
0
0
0
0
0
0
0
0
0
0
0
0
0
0
0
0
0
0
0
0
0
0
0
0
0
0
0
0
0
0
0
0
0
0
0
0
0
0
0
0
0
0
0
0
0
0
0
0
0
0
0
0
0
0
0
0
0
0
0
0
0
0
0
0
0
0
0
0
0
0
0
0
0
0
0
0
0
0
0
0
0
0
0
0
0
0
0
0
0
0
0
0
0
0
0
0
0
0
0
0
0
0
0
0
0
0
0
0
0
0
0
0
0
0
0
0
0
0
0
0
0
0
0
0
0
0
0
0
0
0
0
0
0
0
0
0
0
0
0
0
0
0
0
0
0
0
0
0
0
0
0
0
0
0
0
0
0
0
0
0
0
0
0
0
0
0
0
0
0
0
0
0
0
0
0
0
0
0
0
0
0
0
0
0
0
0
0
0
0
0
0
0
0
0
0
0
0
0
0
0
0
0
0
0
0
0
0
0
0
0
0
0
0
0
0
0
0
0
0
0
0
0
0
0
0
0
0
0
0
0
0
0
0
0
0
0
0
0
0
0
0
0
0
0
0
0
0
0
0
0
0
0
0
0
0
0
0
0
0
0
0
0
0
0
0
0
0
0
0
0
0
0
0
0
0
0
0
0
0
0
0
0
0
0
0
0
0
0
0
0
0
0
0
0
0
0
0
0
0
0
0
0
0
0
0
0
0
0
0
0
0
0
0
0
0
0
0
0
0
0
0
0
0
0
0
0
0
0
0
0
0
0
0
0
0
0
0
0
0
0
0
0
0
0
0
0
0
0
0
0
0
0
0
0
0
0
0
0
0
0
0
0
0
0
0
0
0
0
0
0
0
0
0
0
0
0
0
0
0
0
0
0
0
0
0
0
0
0
0
0
0
0
0
0
0
0
0
0
0
0
0
0
0
0
0
0
0
0
0
0
0
0
0
0
0
0
0
0
0
0
0
0
0
0
0
0
0
0
0
0
0
0
0
0
0
0
0
0
0
0
0
0
0
0
0
0
0
0
0
0
0
0
0
0
0
0
0
0
0
0
0
0
0
0
0
0
0
0
0
0
0
0
0
0
0
0
0
0
0
0

POINT_DATA	1200
SCALARS model double 1
LOOKUP_TABLE table0
0.195038
-3.21398
-8.24828
-5.16528
-2.8393
0.490069
-3.21596
-7.63278
-3.92727
-1.60984
0.498311
-8.36903
-7.92801
-2.38964
-0.125096
0.401187
-11.4627
-7.84887
-1.5299
0.736505
0.164828
-9.22803
-8.3535
-2.08606
0.539756
0.454606
-7.62356
-8.58135
-3.16394
-0.311405
0.494334
-5.69001
-7.25626
-3.62295
-1.20794
0.201042
-2.9653
-5.11556
-3.70443
-2.09221
0.0796657
0.0848783
-4.8359
-4.73004
-3.36799
0.0900706
-1.13359
-7.08008
-6.20216
-4.43137
-0.36215
-0.250347
-6.59146
-3.38958
-1.33404
-0.357925
-4.58285
-3.70608
0.495784
1.47622
-1.56091
-4.77665
4.11375
6.77395
5.08624
-1.82286
-4.20524
-6.0994
-2.24419
-4.18187
9.14344
11.1742
8.88764
11.1943
10.5489
10.5774
7.22264
-1.82749
-4.64818
4.77503
8.05204
6.59239
-0.577723
-9.94767
-3.5395
2.92719
4.33156
-0.449021
-6.18619
-5.60091
-0.209621
2.11761
-0.603484
-1.65799
-4.24784
-1.65159
0.195197
-0.0186584
1.25849
-4.25529
-3.69034
-2.08591
0.0797864
0.874476
-6.12909
-5.54941
-3.74419
-0.996628
-3.56852
-6.50977
-1.4039
0.327169
-3.35709
3.17423
6.41451
7.85091
5.31568
1.08151
8.16981
10.0605
30.1439
30.2574
41.1231
40.388
71.4816
67.1031
34.2969
23.1083
11.9082
-3.74066
16.8158
-1.02345
18.0537
10.0231
58.3511
10.4568
56.212
41.4793
42.4815
40.2701
41.6354
92.2896
85.5786
90.2504
83.8615
52.3749
32.1035
15.8941
-0.845185
28.2567
28.5637
10.8512
12.8487
67.5071
63.1199
38.0958
37.685
35.422
26.2091
14.949
-5.72054
-6.34301
10.2375
14.704
11.3243
-3.34218
-13.1707
0.32252
7.70789
7.868
-1.44691
-10.2154
-1.91799
3.66138
4.56984
-0.157829
-5.53149
-5.75958
-1.65362
0.347705
0.623108
-6.43508
-8.67852
-5.10575
-2.57988
-1.02969
-7.54838
-6.96322
-0.418162
1.02584
-3.37008
4.44138
4.3469
30.157
31.8276
8.6201
13.2595
35.2176
42.3935
14.7352
12.518
7.00909
-2.36956
30.4725
12.2691
72.9667
1.33327
40.8619
16.1156
84.1084
67.5871
67.5734
111.372
104.086
78.3984
82.9242
127.216
123.465
38.65
35.6537
52.1976
45.171
39.8494
36.5308
53.4477
45.969
33.5808
15.0249
22.8911
102.293
22.3717
99.6436
27.753
118.297
27.0485
115.825
139.85
128.704
136.779
125.807
158.736
149.893
155.12
145.937
62.9638
54.5374
62.5382
54.3183
63.6476
54.6664
63.2165
54.4795
46.048
20.2259
12.1795
68.2322
-0.274379
26.9845
15.9982
79.6019
1.5654
35.079
104.446
96.6158
60.8833
59.1684
118.705
113.174
70.8359
71.9033
51.4645
44.7004
40.871
38.8809
52.8058
45.769
42.2727
40.181
39.8063
20.2717
-9.30867
25.2312
23.944
5.9367
4.7805
35.2424
37.5961
21.1422
21.9696
28.7205
28.4664
17.9687
-5.74888
1.18924
1.50263
1.01568
2.01809
22.2075
22.2578
26.4468
25.9044
25.6788
23.2817
15.629
-3.4027
0.717549
2.64965
-2.18786
0.412624
25.3685
25.6869
17.3226
19.0382
19.6915
17.2649
11.6247
-1.18324
-5.40894
0.450078
4.54221
4.49087
0.612768
-12.4384
-9.14531
-3.22895
-0.652124
-0.15203
-6.66786
-7.34203
-1.40582
0.123253
-3.08794
6.3244
16.4494
29.7268
43.4937
0.520251
11.6781
16.2651
29.9586
9.06763
7.53315
4.18626
-1.36736
33.6683
11.9434
69.9837
-2.24515
22.0742
5.03457
45.1092
67.294
79.8187
109.05
114.829
38.6546
51.3065
60.5678
69.7526
34.1335
31.2642
45.3902
38.9253
19.9755
20.3523
27.0393
25.6622
21.228
9.59901
22.3364
100.011
21.9052
98.6554
10.7599
57.6236
11.4738
58.394
135.929
136.61
132.905
132.283
73.9874
79.8054
72.6324
76.6239
53.5859
45.6846
53.345
45.7458
31.302
29.5237
31.3317
29.792
29.8391
13.9785
12.6351
66.9194
-0.180377
26.9713
5.60447
43.2256
-3.75685
13.5464
101.72
103.682
61.7733
69.25
56.0741
61.8452
35.8618
46.8151
45.5542
39.9793
38.2758
37.0675
28.3307
27.961
26.4005
28.1569
30.5983
16.9902
-8.90172
37.01
44.5449
35.8998
39.3156
30.7523
42.6536
47.8578
54.3939
39.2755
34.4414
20.4006
-4.80205
18.6745
2.68114
40.3901
2.30004
43.6747
12.9693
71.0172
49.7913
49.1616
62.5433
58.6349
77.8844
76.6472
100.939
92.5785
61.653
42.5858
22.9296
4.29335
42.3071
0.214463
26.7668
13.8841
73.0584
7.45575
50.2113
61.2764
57.9607
44.5963
44.2167
99.6431
91.2695
73.2428
70.2222
57.6437
37.9107
19.8187
-1.53573
22.0776
20.6067
-1.12527
-4.59054
36.5642
36.4812
5.36857
4.56865
16.96
15.1206
9.6539
-0.404185
-15.6586
-4.11653
0.933959
1.85796
0.756788
-1.27506
-4.27486
-2.92715
-1.62505
1.21597
-0.843443
3.92898
0.84059
4.43184
-0.926991
-6.87629
-14.2166
-21.8049
-5.77285
-4.01147
-1.66324
-1.62178
-0.160075
1.27848
-7.36331
-5.55687
-42.0598
-49.4254
-78.6932
-81.6883
-3.07885
-4.88996
-5.4327
-6.96208
-23.4867
-20.9633
-31.9022
-26.3894
-8.48109
-1.98442
0.266251
6.80998
0.76715
6.21792
-12.7699
-50.7
-12.9255
-48.9912
-13.0947
-12.8136
-13.0887
-14.0414
-104.125
-106.946
-104.802
-107.851
-7.60053
-9.34306
-7.01644
-8.36346
-39.7385
-32.9294
-39.1431
-31.8872
-10.0611
-0.305755
-6.78408
-9.89232
-7.86189
-2.37845
6.11495
-82.5907
-82.5473
-46.1768
-40.717
-2.22036
-1.52345
5.24407
5.70338
-28.2754
-20.325
-13.1463
-8.82218
1.53755
6.26123
-8.45035
-3.96292
-4.23586
18.736
-7.02312
1.04048
-1.29414
25.3749
17.2827
31.1439
54.3456
64.4251
-0.53026
12.4064
54.5573
65.6363
20.3971
22.8748
37.2548
35.0829
11.3398
15.6324
32.8786