# vtk DataFile Version 3.0
Gravity inversion using rectangular prisms
ASCII
DATASET UNSTRUCTURED_GRID

POINTS	1200	double
100	100	100
100	100	300
100	100	500
100	100	700
100	100	900
100	300	100
100	300	300
100	300	500
100	300	700
100	300	900
100	500	100
100	500	300
100	500	500
100	500	700
100	500	900
100	700	100
100	700	300
100	700	500
100	700	700
100	700	900
100	900	100
100	900	300
100	900	500
100	900	700
100	900	900
100	1100	100
100	1100	300
100	1100	500
100	1100	700
100	1100	900
100	1300	100
100	1300	300
100	1300	500
100	1300	700
100	1300	900
100	1500	100
100	1500	300
100	1500	500
100	1500	700
100	1500	900
100	1700	100
100	1700	300
100	1700	500
100	1700	700
100	1700	900
100	1900	100
100	1900	300
100	1900	500
100	1900	700
100	1900	900
300	100	100
300	100	300
300	100	500
300	100	700
300	100	900
300	300	100
300	300	300
300	300	500
300	300	700
300	300	900
300	500	100
300	500	300
300	500	500
300	500	700
300	500	900
300	700	100
250	650	250
250	650	350
250	750	250
250	750	350
350	650	250
350	650	350
350	750	250
350	750	350
300	700	500
300	700	700
300	700	900
300	900	100
300	900	300
300	900	500
300	900	700
300	900	900
300	1100	100
300	1100	300
300	1100	500
300	1100	700
300	1100	900
300	1300	100
300	1300	300
300	1300	500
300	1300	700
300	1300	900
300	1500	100
300	1500	300
300	1500	500
300	1500	700
300	1500	900
300	1700	100
300	1700	300
300	1700	500
300	1700	700
300	1700	900
300	1900	100
300	1900	300
300	1900	500
300	1900	700
300	1900	900
500	100	100
500	100	300
500	100	500
500	100	700
500	100	900
500	300	100
500	300	300
500	300	500
500	300	700
500	300	900
500	500	100
450	450	250
450	450	350
450	550	250
450	550	350
550	450	250
550	450	350
550	550	250
550	550	350
500	500	500
500	500	700
500	500	900
450	650	50
450	650	150
450	750	50
450	750	150
550	650	50
550	650	150
550	750	50
550	750	150
450	650	250
450	650	350
450	750	250
450	750	350
550	650	250
550	650	350
550	750	250
550	750	350
500	700	500
500	700	700
500	700	900
500	900	100
450	850	250
450	850	350
450	950	250
450	950	350
550	850	250
550	850	350
550	950	250
550	950	350
500	900	500
500	900	700
500	900	900
500	1100	100
500	1100	300
500	1100	500
500	1100	700
500	1100	900
500	1300	100
500	1300	300
500	1300	500
500	1300	700
500	1300	900
500	1500	100
500	1500	300
500	1500	500
500	1500	700
500	1500	900
500	1700	100
500	1700	300
500	1700	500
500	1700	700
500	1700	900
500	1900	100
500	1900	300
500	1900	500
500	1900	700
500	1900	900
700	100	100
700	100	300
700	100	500
700	100	700
700	100	900
700	300	100
650	250	250
650	250	350
650	350	250
650	350	350
750	250	250
750	250	350
750	350	250
750	350	350
700	300	500
700	300	700
700	300	900
650	450	50
650	450	150
650	550	50
650	550	150
750	450	50
750	450	150
750	550	50
750	550	150
650	450	250
650	450	350
650	550	250
650	550	350
750	450	250
750	450	350
750	550	250
750	550	350
650	450	450
650	450	550
650	550	450
650	550	550
750	450	450
750	450	550
750	550	450
750	550	550
700	500	700
700	500	900
650	650	50
650	650	150
650	750	50
650	750	150
750	650	50
750	650	150
750	750	50
750	750	150
650	650	250
650	650	350
650	750	250
650	750	350
750	650	250
750	650	350
750	750	250
750	750	350
650	650	450
650	650	550
650	750	450
650	750	550
750	650	450
750	650	550
750	750	450
750	750	550
700	700	700
700	700	900
650	850	50
650	850	150
650	950	50
650	950	150
750	850	50
750	850	150
750	950	50
750	950	150
650	850	250
650	850	350
650	950	250
650	950	350
750	850	250
750	850	350
750	950	250
750	950	350
700	900	500
700	900	700
700	900	900
700	1100	100
650	1050	250
650	1050	350
650	1150	250
650	1150	350
750	1050	250
750	1050	350
750	1150	250
750	1150	350
700	1100	500
700	1100	700
700	1100	900
700	1300	100
650	1250	250
650	1250	350
650	1350	250
650	1350	350
750	1250	250
750	1250	350
750	1350	250
750	1350	350
700	1300	500
700	1300	700
700	1300	900
700	1500	100
650	1450	250
650	1450	350
650	1550	250
650	1550	350
750	1450	250
750	1450	350
750	1550	250
750	1550	350
700	1500	500
700	1500	700
700	1500	900
700	1700	100
700	1700	300
700	1700	500
700	1700	700
700	1700	900
700	1900	100
700	1900	300
700	1900	500
700	1900	700
700	1900	900
900	100	100
900	100	300
900	100	500
900	100	700
900	100	900
900	300	100
850	250	250
850	250	350
850	350	250
850	350	350
950	250	250
950	250	350
950	350	250
950	350	350
900	300	500
900	300	700
900	300	900
850	450	50
850	450	150
850	550	50
850	550	150
950	450	50
950	450	150
950	550	50
950	550	150
850	450	250
850	450	350
850	550	250
850	550	350
950	450	250
950	450	350
950	550	250
950	550	350
850	450	450
850	450	550
850	550	450
850	550	550
950	450	450
950	450	550
950	550	450
950	550	550
900	500	700
900	500	900
850	650	50
850	650	150
850	750	50
850	750	150
950	650	50
950	650	150
950	750	50
950	750	150
850	650	250
850	650	350
850	750	250
850	750	350
950	650	250
950	650	350
950	750	250
950	750	350
850	650	450
850	650	550
850	750	450
850	750	550
950	650	450
950	650	550
950	750	450
950	750	550
900	700	700
900	700	900
850	850	50
850	850	150
850	950	50
850	950	150
950	850	50
950	850	150
950	950	50
950	950	150
850	850	250
850	850	350
850	950	250
850	950	350
950	850	250
950	850	350
950	950	250
950	950	350
850	850	450
850	850	550
850	950	450
850	950	550
950	850	450
950	850	550
950	950	450
950	950	550
900	900	700
900	900	900
900	1100	100
850	1050	250
850	1050	350
850	1150	250
850	1150	350
950	1050	250
950	1050	350
950	1150	250
950	1150	350
900	1100	500
900	1100	700
900	1100	900
850	1250	50
850	1250	150
850	1350	50
850	1350	150
950	1250	50
950	1250	150
950	1350	50
950	1350	150
850	1250	250
850	1250	350
850	1350	250
850	1350	350
950	1250	250
950	1250	350
950	1350	250
950	1350	350
900	1300	500
900	1300	700
900	1300	900
850	1450	50
850	1450	150
850	1550	50
850	1550	150
950	1450	50
950	1450	150
950	1550	50
950	1550	150
850	1450	250
850	1450	350
850	1550	250
850	1550	350
950	1450	250
950	1450	350
950	1550	250
950	1550	350
900	1500	500
900	1500	700
900	1500	900
900	1700	100
850	1650	250
850	1650	350
850	1750	250
850	1750	350
950	1650	250
950	1650	350
950	1750	250
950	1750	350
900	1700	500
900	1700	700
900	1700	900
900	1900	100
900	1900	300
900	1900	500
900	1900	700
900	1900	900
1100	100	100
1100	100	300
1100	100	500
1100	100	700
1100	100	900
1100	300	100
1050	250	250
1050	250	350
1050	350	250
1050	350	350
1150	250	250
1150	250	350
1150	350	250
1150	350	350
1100	300	500
1100	300	700
1100	300	900
1100	500	100
1050	450	250
1050	450	350
1050	550	250
1050	550	350
1150	450	250
1150	450	350
1150	550	250
1150	550	350
1050	450	450
1050	450	550
1050	550	450
1050	550	550
1150	450	450
1150	450	550
1150	550	450
1150	550	550
1100	500	700
1100	500	900
1050	650	50
1050	650	150
1050	750	50
1050	750	150
1150	650	50
1150	650	150
1150	750	50
1150	750	150
1050	650	250
1050	650	350
1050	750	250
1050	750	350
1150	650	250
1150	650	350
1150	750	250
1150	750	350
1050	650	450
1050	650	550
1050	750	450
1050	750	550
1150	650	450
1150	650	550
1150	750	450
1150	750	550
1100	700	700
1100	700	900
1100	900	100
1050	850	250
1050	850	350
1050	950	250
1050	950	350
1150	850	250
1150	850	350
1150	950	250
1150	950	350
1050	850	450
1050	850	550
1050	950	450
1050	950	550
1150	850	450
1150	850	550
1150	950	450
1150	950	550
1100	900	700
1100	900	900
1050	1050	50
1050	1050	150
1050	1150	50
1050	1150	150
1150	1050	50
1150	1050	150
1150	1150	50
1150	1150	150
1050	1050	250
1050	1050	350
1050	1150	250
1050	1150	350
1150	1050	250
1150	1050	350
1150	1150	250
1150	1150	350
1050	1050	450
1050	1050	550
1050	1150	450
1050	1150	550
1150	1050	450
1150	1050	550
1150	1150	450
1150	1150	550
1100	1100	700
1100	1100	900
1050	1250	50
1050	1250	150
1050	1350	50
1050	1350	150
1150	1250	50
1150	1250	150
1150	1350	50
1150	1350	150
1050	1250	250
1050	1250	350
1050	1350	250
1050	1350	350
1150	1250	250
1150	1250	350
1150	1350	250
1150	1350	350
1050	1250	450
1050	1250	550
1050	1350	450
1050	1350	550
1150	1250	450
1150	1250	550
1150	1350	450
1150	1350	550
1100	1300	700
1100	1300	900
1050	1450	50
1050	1450	150
1050	1550	50
1050	1550	150
1150	1450	50
1150	1450	150
1150	1550	50
1150	1550	150
1050	1450	250
1050	1450	350
1050	1550	250
1050	1550	350
1150	1450	250
1150	1450	350
1150	1550	250
1150	1550	350
1050	1450	450
1050	1450	550
1050	1550	450
1050	1550	550
1150	1450	450
1150	1450	550
1150	1550	450
1150	1550	550
1100	1500	700
1100	1500	900
1100	1700	100
1050	1650	250
1050	1650	350
1050	1750	250
1050	1750	350
1150	1650	250
1150	1650	350
1150	1750	250
1150	1750	350
1100	1700	500
1100	1700	700
1100	1700	900
1100	1900	100
1100	1900	300
1100	1900	500
1100	1900	700
1100	1900	900
1300	100	100
1250	50	250
1250	50	350
1250	150	250
1250	150	350
1350	50	250
1350	50	350
1350	150	250
1350	150	350
1300	100	500
1300	100	700
1300	100	900
1300	300	100
1250	250	250
1250	250	350
1250	350	250
1250	350	350
1350	250	250
1350	250	350
1350	350	250
1350	350	350
1300	300	500
1300	300	700
1300	300	900
1250	450	50
1250	450	150
1250	550	50
1250	550	150
1350	450	50
1350	450	150
1350	550	50
1350	550	150
1250	450	250
1250	450	350
1250	550	250
1250	550	350
1350	450	250
1350	450	350
1350	550	250
1350	550	350
1250	450	450
1250	450	550
1250	550	450
1250	550	550
1350	450	450
1350	450	550
1350	550	450
1350	550	550
1300	500	700
1300	500	900
1250	650	50
1250	650	150
1250	750	50
1250	750	150
1350	650	50
1350	650	150
1350	750	50
1350	750	150
1250	650	250
1250	650	350
1250	750	250
1250	750	350
1350	650	250
1350	650	350
1350	750	250
1350	750	350
1250	650	450
1250	650	550
1250	750	450
1250	750	550
1350	650	450
1350	650	550
1350	750	450
1350	750	550
1250	650	650
1250	650	750
1250	750	650
1250	750	750
1350	650	650
1350	650	750
1350	750	650
1350	750	750
1300	700	900
1250	850	50
1250	850	150
1250	950	50
1250	950	150
1350	850	50
1350	850	150
1350	950	50
1350	950	150
1250	850	250
1250	850	350
1250	950	250
1250	950	350
1350	850	250
1350	850	350
1350	950	250
1350	950	350
1250	850	450
1250	850	550
1250	950	450
1250	950	550
1350	850	450
1350	850	550
1350	950	450
1350	950	550
1300	900	700
1300	900	900
1250	1050	50
1250	1050	150
1250	1150	50
1250	1150	150
1350	1050	50
1350	1050	150
1350	1150	50
1350	1150	150
1250	1050	250
1250	1050	350
1250	1150	250
1250	1150	350
1350	1050	250
[...]
CELL_DATA	1200
SCALARS model double 1
LOOKUP_TABLE table0
0.139552
0.0262431
-10.6404
-8.48117
-5.73744
0.21081
1.93173
-9.38124
-6.65171
-4.1312
0.254131
-1.46511
-9.911
-4.67086
-2.21036
0.314194
-7.40506
-11.3303
-4.07016
-1.31217
-0.278308
-2.15565
-11.5963
-5.33169
-1.92054
-0.403626
1.25461
-11.1701
-6.88931
-3.25194
-0.303758
0.309984
-9.3208
-7.09015
-4.39049
-0.368178
3.06741
-5.65441
-6.63502
-5.54573
-0.213093
3.73597
-4.85618
-8.22976
-7.74765
-0.0798899
3.73177
-7.43071
-10.2748
-9.32488
-0.324409
2.44034
-8.54202
-5.46337
-3.2742
0.112494
-4.95472
-8.26373
-1.3687
-0.0265096
-0.288511
-7.51701
-2.20975
6.16067
4.54809
-0.865286
-5.65722
-7.13446
-2.675
-4.37928
4.99831
9.22321
5.25548
9.77513
3.44865
10.4942
7.07676
-1.11538
-7.01931
-1.27867
6.66869
5.71097
-0.474683
-9.06446
-8.67401
-0.298136
2.23589
-0.768107
-2.3541
-9.62122
-4.19553
-0.861666
-1.10731
2.96837
-7.45772
-5.75802
-3.47181
-0.371245
-0.0780027
-7.44799
-8.34742
-6.83599
-0.416319
4.40997
-6.84716
-9.59517
-8.61127
-0.589801
0.400484
-7.42332
-1.40439
-0.285186
-1.69735
0.681468
1.6006
8.97017
5.72807
1.73638
3.64477
4.78118
25.9441
27.8325
35.5245
37.5158
67.6328
66.3286
30.2051
27.8922
14.4452
-4.22431
16.6009
-1.29038
16.3416
10.6367
63.5294
10.3818
59.4781
37.4881
40.9308
36.341
40.5434
89.641
84.7754
88.2025
83.5361
50.705
38.9896
19.5304
-1.15582
24.4936
27.8102
7.70787
10.5494
65.8314
64.2263
36.2339
37.6136
33.5661
30.6433
17.4941
-4.90744
-9.71396
5.2437
14.9099
11.7474
-2.82178
-15.0158
-5.53197
5.46031
6.59403
-1.47406
-6.5681
-6.5255
0.179886
1.83767
-0.741348
0.700822
-8.67142
-6.64891
-4.37114
-0.463289
1.4141
-8.23357
-9.19172
-7.44751
-0.0959435
-10.2253
-7.17476
1.03036
1.08959
-1.24617
-2.77392
2.14954
20.465
28.6686
-0.483181
9.13973
22.0724
35.9006
11.2844
15.9329
8.51886
-3.00137
37.6203
13.0986
82.8628
1.16739
47.1853
17.0693
94.7384
59.0551
63.611
105.631
100.761
65.448
74.7007
117.509
114.653
40.7593
32.5361
60.9415
48.1958
43.2798
34.7436
63.2382
50.041
42.3599
19.3147
25.4911
111.908
23.9612
107.382
31.3322
129.622
29.4855
125.156
136.625
123.806
134.796
121.726
152.219
139.072
150.548
136.776
74.0544
58.1982
76.1821
63.0442
76.1333
59.6191
77.8487
63.8295
58.1368
26.1183
12.1765
73.208
-2.25416
27.5676
15.8644
84.5298
-1.67764
34.115
102.662
96.3022
58.9034
59.9181
114.701
109.846
66.6576
72.3202
64.8304
49.5116
25.4005
-9.67113
23.1103
25.3077
4.59137
5.37087
31.9024
41.1021
19.2304
25.8356
29.7136
33.8337
21.3909
-6.26401
0.2474
0.622124
-0.439901
0.355419
21.1175
24.0572
25.4844
26.2854
20.0214
26.336
17.6416
-4.06864
-0.381912
1.60162
-3.09285
-0.579415
24.4825
25.1919
16.7322
18.0059
13.6366
17.9041
11.559
-1.91811
-5.87749
-4.04593
0.749792
0.668297
-0.449627
-6.36201
-9.98756
-7.0535
-5.27455
-0.0655751
-0.822366
-4.51314
-0.28599
-0.47348
-1.20122
-2.36901
10.4672
14.9527
32.1587
-6.20825
5.45131
5.2628
18.701
6.66278
9.54607
4.52682
-2.32484
38.7296
11.6641
79.1861
-1.9843
30.9755
4.40621
52.7537
52.3768
65.3014
96.6959
98.7816
28.6518
37.2869
51.0502
54.0971
36.4597
29.6008
52.4838
41.7312
18.4678
14.8249
27.8817
22.4983
26.4205
11.6634
23.7819
108.908
22.6927
106.435
9.78395
61.4526
10.0699
63.5884
126.504
119.075
126.244
117.48
66.0742
63.8442
68.2254
63.4681
62.7928
49.0483
63.9717
51.0163
33.188
26.3638
33.9999
27.6948
37.3859
17.2439
11.9135
72.1897
-3.36078
26.3408
3.70103
48.4873
-6.86676
15.0658
96.1922
95.7785
55.8574
66.8628
52.864
53.65
30.5084
42.5434
57.3637
49.3964
48.6553
46.8274
31.5924
28.2862
29.7666
30.5132
37.8782
20.8609
-9.69114
31.5454
46.9694
32.1301
43.6659
23.8256
41.9944
41.6866
56.6388
39.6527
42.5001
25.2663
-5.82062
17.7311
2.00477
38.4348
0.955823
41.4426
13.6832
70.2698
47.6357
52.0458
61.5871
60.2832
74.1226
79.2838
100.052
95.6176
61.2464
52.8267
28.6356
3.52823
40.2228
-1.85512
25.097
13.9433
72.1875
6.02397
48.8761
61.1723
58.4198
45.8106
43.9284
100.816
93.7967
76.078
72.253
57.6732
45.988
23.5829
-2.40866
25.7511
20.6541
4.29781
-5.62499
41.2549
39.085
10.362
5.28266
13.7187
14.7759
7.59731
-1.34168
-12.2856
-6.95276
-1.37421
-2.02782
0.0506923
-0.41024
-1.85562
-4.11348
-3.90404
0.29756
-4.72961
1.02354
-0.832325
1.00175
4.9153
-3.07808
-4.25746
-17.0553
-6.21597
-5.93951
-4.09943
-1.55705
-0.458793
-2.53482
-10.0888
-9.99803
-33.3629
-44.3967
-74.3202
-76.7785
-2.12202
-2.97872
-5.45138
-5.70363
-27.1241
-24.0023
-39.9453
-33.1864
-11.585
-5.016
1.07213
2.31609
0.637096
7.33972
-9.81051
-65.9692
-11.3569
-57.5927
-15.2952
-15.6297
-11.5402
-15.4085
-98.8834
-98.4376
-97.3318
-99.1218
-7.56143
-7.06518
-6.98762
-5.58325
-49.1124
-39.3596
-48.9125
-37.9536
-12.8284
-3.3568
-6.91336
-8.42502
-9.74799
-6.12456
2.80888
-78.362
-78.9
-48.1905
-42.3226
-2.85129
0.0982081
6.05816
10.0182
-38.1544
-27.4753
-18.2953
-10.1803
0.432075
5.52671
-7.71291
-6.74506
-5.95242
14.3694
-6.43525
-4.34012
-2.36334
20.2461
9.71547
26.7845
46.2319
62.2361
-7.07995
5.93545
46.298
60.3446
20.9049
25.0302
44.2663
42.7703
8.45342
13.4462
38.6663
36.5102
34.9063
21.0948
6.27484
57.9735
23.0509
97.9495
11.3784
69.6952
27.4518
112.297
94.9085
100.042
131.463
124.405
106.308
110.499
148.624
140.708
65.1623
56.7036
79.5363
65.3657
65.5582
56.1537
82.2606
66.9934
69.0103
33.8047
24.7625
101.201
12.8995
70.1568
27.3069
113.94
14.0144
78.4819
133.393
122.899
100.979
95.4392
150.546
139.388
113.776
108.272
79.7966
64.5553
67.4935
57.2409
83.7195
67.6475
70.8327
60.0952
67.1143
31.5321
-2.68372
54.1144
53.3656
12.6471
10.6569
61.0524
61.1349
15.3138
14.2414
21.6733
26.0823
12.5901
-1.50487
-11.0234
-4.58967
4.03434
0.487221
-0.0781463
2.79618
5.38926
10.5161
5.01647
5.64475
7.46992
13.3429
7.14542
1.17212
-6.30927
-6.28756
0.850128
10.6069
-3.80533
-11.0617
-30.6616
9.91509
-4.90473
-15.3571
-35.966
-12.6914
-15.4868
-10.4097
0.576528
-30.3702
-14.3306
-83.6512
-3.17516
-36.678
-17.1684
-86.9524
-59.472
-75.4975
-119.172
-125.18
-67.3353
-85.7968
-130.476
-140.507
-42.0032
-37.0211
-64.6003
-54.6893
-48.4943
-43.0724
-73.5462
-62.8697
-34.3195
-17.6358
-23.037
-113.698
-24.3194
-113.245
-29.0961
-124.434
-30.8369
-126.901
-158.002
-158.615
-160.013
-160.922
-173.801
-177.973
-176.775
-181.265
-79.4238
-65.2766
-79.8147
-64.4044
-90.2838
-75.2535
-91.0051
-74.9494
-29.8261
-24.0224
-28.5129
-23.232
-34.9623
-29.6281
-33.3969
-28.6013
-19.5348
-16.6098
-89.7017
-1.92993
-38.4985
-18.5112
-92.5267
-2.91771
-38.4692
-128.456
-130.617
-75.5817
-76.7841
-139.122
-147.722
-78.4407
-88.7872
-64.461
-50.772
-36.8992
-28.093
-74.1864
-60.6861
-44.4028
-36.6908
-25.7065
-8.34632
-2.32874
-6.30354
0.720638
23.3647
-0.499874
-3.99025
-1.01371
19.8872
-17.144
-12.1476
44.0471
53.3173
-18.1418
-21.1472
38.7531
43.8284
-2.55292
1.75097
32.6603
29.5382
-8.60032
-5.40745
26.5236
23.131
20.9541
12.8593
13.8635
73.4983
27.3124
113.423
12.8955
66.3075
26.0138
102.335
106.947
109.377
149.323
141.681
95.6283
97.4454
133.301
127.509
62.5535
52.7848
80.5246
65.5819
55.485
46.8783
72.6066
60.4546
64.2492
30.0911
26.6884
112.018
12.9616
72.8761
24.5788
99.0631
10.8976
61.7312
149.987
140.202
112.001
108.17
132.407
125.605
96.7565
95.6172
82.6387
67.5569
69.8165
60.1288
75.4409
64.7744
64.5034
58.6446
65.2177
29.9652
0.306617
25.1268
-3.52528
0.481223
0.246605
20.3873
-3.06131
-0.701001
58.9648
60.4526
14.2802
14.0055
48.6918
51.7761
8.44769
9.36798
18.2204
24.8885
11.8813
-1.09202
-9.62012
-5.77679
3.53373
0.0867486
0.258087
1.53521
3.10079
-4.51368
-5.57431
1.86883
4.16861
-6.65203
-14.1888
-31.8203
0.237867
-4.50663
-8.73341
-21.2186
-6.71175
-12.7776
-9.8545
-3.99401
-27.2884
-14.3169
-66.8909
0.785623
-8.26789
-5.3196
-34.1509
-56.2124
-74.3734
-109.116
-122.324
-34.0253
-49.452
-68.7751
-83.4342
-43.2137
-39.3693
-66.2463
-58.1984
-30.0577
-29.8175
-48.3473
-45.7581
-33.0086
-17.5634
-23.7353
-97.7684
-22.7996
-99.2642
-9.66998
-50.9248
-10.4512
-52.3204
-146.234
-155.828
-148.106
-159.072
-93.457
-107.844
-93.9063
-110.321
-81.6667
-70.3165
-82.4309
-70.5835
-60.7397
-56.4097
-61.3773
-56.8749
-43.3283
-20.54
-13.6121
-71.5488
-1.04521
-31.629
-5.95408
-39.1385
1.26225
-15.2755
-114.073
-129.31
-61.6331
-77.6123
-69.8707
-88.7755
-34.5415
-51.9865
-67.2295
-57.9368
-40.7299
-36.5147
-49.7596
-46.7765
-30.2049
-30.1344
-28.4946
-11.6766
-0.124307
-13.0942
-20.0249
29.9577
33.6361
-5.14145
-12.4323
18.6597
23.4295
-9.47616
-8.40466
20.3636
16.9081
-7.01446
-7.66697
14.3703
11.9198
9.40524
5.56584
9.63342
50.9027
19.863
77.9109
4.91197
25.1561
9.77387
45.1739
73.3364
77.1301
102.265
101.067
44.8363
52.2359
63.133
67.8257
44.5577
38.2401
57.4397
50.6314
32.2389
29.2036
42.3475
39.9609
41.0079
19.3117
18.8716
74.3146
7.21691
45.8672
8.02542
43.0956
1.4743
26.6184
100.455
98.8054
71.6853
73.8867
61.8332
65.6152
43.832
48.2333
47.4575
41.1209
19.3792
-0.516603
34.3314
38.2827
2.83989
4.23774
20.488
23.9192
-1.26261
-0.735261
5.68015
11.9138
5.62375
0.0799547
-14.0271
-10.8038
-2.95288
-3.26011
0.00718401
2.762
6.46001
0.100454
-2.33937
1.03269
-0.599846
8.01089
-2.28354
-4.29251
1.68675
-13.6561
-22.9039
-29.9141
-41.7505
2.05508
-0.576768
-4.45327
-10.9094
1.42833
-11.0318
-8.47774
-0.380678
-12.5504
0.28058
-13.124
0.449907
4.82546
1.34028
1.90202
-41.7243
-55.9952
-41.1764
-57.4888
-8.17099
-17.1493
-7.34504
-17.7306
-7.71733
-17.1694
-10.7014
0.475202
-28.2088
-45.1959
-10.579
-24.8634
-3.01048
-13.2438
1.80103
-5.83665
-5.44459
-12.0709
-7.25855
-0.208143
0.507432
-4.86902
8.13529
13.1051
-0.450807
-2.49111
0.222383
2.95379
0.305848
1.22558
0.131891
-0.00183683
19.1291
27.1351
27.0962
34.5597
1.9466
4.95152
1.47675
6.50051
4.76081
11.8362
5.87431
-0.00121241
26.9366
33.1444
20.3099
24.4678
1.58893
6.93548
2.50433
4.8673
5.70527
10.5431
5.13238
-1.07163
2.19608
-7.09492
-2.96218
-2.58574
-0.217951
0.751475
-11.9839
-9.60656
-7.43344
-0.122405
-0.180381
5.54095
1.04667
-0.998495
0.0859755
0.221936
7.98494
0.383399
-1.87181
0.489179
0.693701
7.06073
-3.69227
-4.16445
0.231572
3.52706
2.13909
5.59438
3.02314
2.09592
4.76443
5.89603
6.09372
4.46076
-7.1169
-5.77861
0.210037
1.36886
1.59869
-6.23776
-4.86837
0.128193
-2.00959
-3.26135
-2.42894
-2.14378
0.493788
-8.47834
-6.79587
0.882455
-0.000705008
-0.510125
-4.58353
-5.02258
0.124086
-0.842809
-1.27868
6.05704
-7.93544
-6.88823
-5.55909
-0.92617
2.63434
-10.4838
-10.4028
-8.41338
SCALARS m0 double 1
LOOKUP_TABLE table1
0
0
0
0
0
0
0
0
0
0
0
0
0
0
0
0
0
0
0
0
0
0
0
0
0
0
0
0
0
0
0
0
0
0
0
0
0
0
0
0
0
0
0
0
0
0
0
0
0
0
0
0
0
0
0
0
0
0
0
0
0
0
0
0
0
0
0
0
0
0
0
0
0
0
0
0
0
0
0
0
0
0
0
0
0
0
0
0
0
0
0
0
0
0
0
0
0
0
0
0
0
0
0
0
0
0
0
0
0
0
0
0
0
0
0
0
0
0
0
0
0
0
0
0
0
0
0
0
0
0
0
0
0
0
0
0
0
0
0
0
0
0
0
0
0
0
0
0
0
0
0
0
0
0
0
0
0
0
0
0
0
0
0
0
0
0
0
0
0
0
0
0
0
0
0
0
0
0
0
0
0
0
0
0
0
0
0
0
0
0
0
0
0
0
0
0
0
0
0
0
0
0
0
0
0
0
0
0
0
0
0
0
0
0
0
0
0
0
0
0
0
0
0
0
0
0
0
0
0
0
0
0
0
0
0
0
0
0
0
0
0
0
0
0
0
0
0
0
0
0
0
0
0
0
0
0
0
0
0
0
0
0
0
0
0
0
0
0
0
0
0
0
0
0
0
0
0
0
0
0
0
0
0
0
0
0
0
0
0
0
0
0
0
0
0
0
0
0
0
0
0
0
0
0
0
0
0
0
0
0
0
0
0
0
0
0
0
0
0
0
0
0
0
0
0
0
0
0
0
0
0
0
0
0
0
0
0
0
0
0
0
0
0
0
0
0
0
0
0
0
0
0
0
0
0
0
0
0
0
0
0
0
0
0
0
0
0
0
0
0
0
0
0
0
0
0
0
0
0
0
0
0
0
0
0
0
0
0
0
0
0
0
0
0
0
0
0
0
0
0
0
0
0
0
0
0
0
0
0
0
0
0
0
0
0
0
0
0
0
0
0
0
0
0
0
0
0
0
0
0
0
0
0
0
0
0
0
0
0
0
0
0
0
0
0
0
0
0
0
0
0
0
0
0
0
0
0
0
0
0
0
0
0
0
0
0
0
0
0
0
0
0
0
0
0
0
0
0
0
0
0
0
0
0
0
0
0
0
0
0
0
0
0
0
0
0
0
0
0
0
0
0
0
0
0
0
0
0
0
0
0
0
0
0
0
0
0
0
0
0
0
0
0
0
0
0
0
0
0
0
0
0
0
0
0
0
0
0
0
0
0
0
0
0
0
0
0
0
0
0
0
0
0
0
0
0
0
0
0
0
0
0
0
0
0
0
0
0
0
0
0
0
0
0
0
0
0
0
0
0
0
0
0
0
0
0
0
0
0
0
0
0
0
0
0
0
0
0
0
0
0
0
0
0
0
0
0
0
0
0
0
0
0
0
0
0
0
0
0
0
0
0
0
0
0
0
0
0
0
0
0
0
0
0
0
0
0
0
0
0
0
0
0
0
0
0
0
0
0
0
0
0
0
0
0
0
0
0
0
0
0
0
0
0
0
0
0
0
0
0
0
0
0
0
0
0
0
0
0
0
0
0
0
0
0
0
0
0
0
0
0
0
0
0
0
0
0
0
0
0
0
0
0
0
0
0
0
0
0
0
0
0
0
0
0
0
0
0
0
0
0
0
0
0
0
0
0
0
0
0
0
0
0
0
0
0
0
0
0
0
0
0
0
0
0
0
0
0
0
0
0
0
0
0
0
0
0
0
0
0
0
0
0
0
0
0
0
0
0
0
0
0
0
0
0
0
0
0
0
0
0
0
0
0
0
0
0
0
0
0
0
0
0
0
0
0
0
0
0
0
0
0
0
0
0
0
0
0
0
0
0
0
0
0
0
0
0
0
0
0
0
0
0
0
0
0
0
0
0
0
0
0
0
0
0
0
0
0
0
0
0
0
0
0
0
0
0
0
0
0
0
0
0
0
0
0
0
0
0
0
0
0
0
0
0
0
0
0
0
0
0
0
0
0
0
0
0
0
0
0
0
0
0
0
0
0
0
0
0
0
0
0
0
0
0
0
0
0
0
0
0
0
0
0
0
0
0
0
0
0
0
0
0
0
0
0
0
0
0
0
0
0
0
0
0
0
0
0
0
0
0
0
0
0
0
0
0
0
0
0
0
0
0
0
0
0
0
0
0
0
0
0
0
0
0
0
0
0
0
0
0
0
0
0
0
0
0
0
0
0
0
0
0
0
0
0
0
0
0
0
0
0
0
0
0
0
0
0
0
0
0
0
0
0
0
0
0
0
0
0
0
0
0
0
0
0
0
0
0
0
0
0
0
0
0
0
0
0
0
0
0
0
0
0
0
0
0
0
0
0
0
0
0
0
0
0
0
0
0
0
0
0
0
0
0
0
0
0
0
0
0
0
0
0
0
0
0
0
0
0
0
0
0
0
0
0
0
0
0
0
0
0
0
0
0
0
0
0
0
0
0
0
0
0
0
0
0
0
0
0
0
0
0
0
0
0
0
0
0
0
0
0
0
0
0
0
0
0
0
0
0
0
0
0
0
0
0
0
0
0
0
0
0
0
0
0
0
0
0
0
0
0
0
0
0
0
0
0
0
0
0
0
0
0
0
0
0
0
0
0
0
0
0
0
0
0
0
0
0
0
0
0
0
0
0
0
0
0
0
0
0
0
0
0
0
0
0
0
0
0
0
0
0
0
0
0
0
0
0
0
0
0
0
0
0
0
0
0
0
0
SCALARS m0s double 1
LOOKUP_TABLE table2
0
0
0
0
0
0
0
0
0
0
0
0
0
0
0
0
0
0
0
0
0
0
0
0
0
0
0
0
0
0
0
0
0
0
0
0
0
0
0
0
0
0
0
0
0
0
0
0
0
0
0
0
0
0
0
0
0
0
0
0
0
0
0
0
0
0
0
0
0
0
0
0
0
0
0
0
0
0
0
0
0
0
0
0
0
0
0
0
0
0
0
0
0
0
0
0
0
0
0
0
0
0
0
0
0
0
0
0
0
0
0
0
0
0
0
0
0
0
0
0
0
0
0
0
0
0
0
0
0
0
0
0
0
0
0
0
0
0
0
0
0
0
0
0
0
0
0
0
0
0
0
0
0
0
0
0
0
0
0
0
0
0
0
0
0
0
0
0
0
0
0
0
0
0
0
0
0
0
0
0
0
0
0
0
0
0
0
0
0
0
0
0
0
0
0
0
0
0
0
0
0
0
0
0
0
0
0
0
0
0
0
0
0
0
0
0
0
0
0
0
0
0
0
0
0
0
0
0
0
0
0
0
0
0
0
0
0
0
0
0
0
0
0
0
0
0
0
0
0
0
0
0
0
0
0
0
0
0
0
0
0
0
0
0
0
0
0
0
0
0
0
0
0
0
0
0
0
0
0
0
0
0
0
0
0
0
0
0
0
0
0
0
0
0
0
0
0
0
0
0
0
0
0
0
0
0
0
0
0
0
0
0
0
0
0
0
0
0
0
0
0
0
0
0
0
0
0
0
0
0
0
0
0
0
0
0
0
0
0
0
0
0
0
0
0
0
0
0
0
0
0
0
0
0
0
0
0
0
0
0
0
0
0
0
0
0
0
0
0
0
0
0
0
0
0
0
0
0
0
0
0
0
0
0
0
0
0
0
0
0
0
0
0
0
0
0
0
0
0
0
0
0
0
0
0
0
0
0
0
0
0
0
0
0
0
0
0
0
0
0
0
0
0
0
0
0
0
0
0
0
0
0
0
0
0
0
0
0
0
0
0
0
0
0
0
0
0
0
0
0
0
0
0
0
0
0
0
0
0
0
0
0
0
0
0
0
0
0
0
0
0
0
0
0
0
0
0
0
0
0
0
0
0
0
0
0
0
0
0
0
0
0
0
0
0
0
0
0
0
0
0
0
0
0
0
0
0
0
0
0
0
0
0
0
0
0
0
0
0
0
0
0
0
0
0
0
0
0
0
0
0
0
0
0
0
0
0
0
0
0
0
0
0
0
0
0
0
0
0
0
0
0
0
0
0
0
0
0
0
0
0
0
0
0
0
0
0
0
0
0
0
0
0
0
0
0
0
0
0
0
0
0
0
0
0
0
0
0
0
0
0
0
0
0
0
0
0
0
0
0
0
0
0
0
0
0
0
0
0
0
0
0
0
0
0
0
0
0
0
0
0
0
0
0
0
0
0
0
0
0
0
0
0
0
0
0
0
0
0
0
0
0
0
0
0
0
0
0
0
0
0
0
0
0
0
0
0
0
0
0
0
0
0
0
0
0
0
0
0
0
0
0
0
0
0
0
0
0
0
0
0
0
0
0
0
0
0
0
0
0
0
0
0
0
0
0
0
0
0
0
0
0
0
0
0
0
0
0
0
0
0
0
0
0
0
0
0
0
0
0
0
0
0
0
0
0
0
0
0
0
0
0
0
0
0
0
0
0
0
0
0
0
0
0
0
0
0
0
0
0
0
0
0
0
0
0
0
0
0
0
0
0
0
0
0
0
0
0
0
0
0
0
0
0
0
0
0
0
0
0
0
0
0
0
0
0
0
0
0
0
0
0
0
0
0
0
0
0
0
0
0
0
0
0
0
0
0
0
0
0
0
0
0
0
0
0
0
0
0
0
0
0
0
0
0
0
0
0
0
0
0
0
0
0
0
0
0
0
0
0
0
0
0
0
0
0
0
0
0
0
0
0
0
0
0
0
0
0
0
0
0
0
0
0
0
0
0
0
0
0
0
0
0
0
0
0
0
0
0
0
0
0
0
0
0
0
0
0
0
0
0
0
0
0
0
0
0
0
0
0
0
0
0
0
0
0
0
0
0
0
0
0
0
0
0
0
0
0
0
0
0
0
0
0
0
0
0
0
0
0
0
0
0
0
0
0
0
0
0
0
0
0
0
0
0
0
0
0
0
0
0
0
0
0
0
0
0
0
0
0
0
0
0
0
0
0
0
0
0
0
0
0
0
0
0
0
0
0
0
0
0
0
0
0
0
0
0
0
0
0
0
0
0
0
0
0
0
0
0
0
0
0
0
0
0
0
0
0
0
0
0
0
0
0
0
0
0
0
0
0
0
0
0
0
0
0
0
0
0
0
0
0
0
0
0
0
0
0
0
0
0
0
0
0
0
0
0
0
0
0
0
0
0
0
0
0
0
0
0
0
0
0
0
0
0
0
0
0
0
0
0
0
0
0
0
0
0
0
0
0
0
0
0
0
0
0
0
0
0
0
0
0
0
0
0
0
0
0
0
0
0
0
0
0
0
0
0
0
0
0
0
0
0
0
0
0
0
0
0
0
0
0
0
0
0
0
0
0
0
0
0
0
0
0
0
0
0
0
0
0
0
0
0
0
0
0
0
0
0
0
0
0
0
0
0
0
0
0
0
0
0
0
0
0
0
0
0
0
0
0
0
0
0
0
0
0
0
0
0
0
0
0
0
0
0
0
0
0
0
0
0
0
0
0
0
0
0
0
0
0

POINT_DATA	1200
SCALARS model double 1
LOOKUP_TABLE table0
0.139552
0.0262431
-10.6404
-8.48117
-5.73744
0.21081
1.93173
-9.38124
-6.65171
-4.1312
0.254131
-1.46511
-9.911
-4.67086
-2.21036
0.314194
-7.40506
-11.3303
-4.07016
-1.31217
-0.278308
-2.15565
-11.5963
-5.33169
-1.92054
-0.403626
1.25461
-11.1701
-6.88931
-3.25194
-0.303758
0.309984
-9.3208
-7.09015
-4.39049
-0.368178
3.06741
-5.65441
-6.63502
-5.54573
-0.213093
3.73597
-4.85618
-8.22976
-7.74765
-0.0798899
3.73177
-7.43071
-10.2748
-9.32488
-0.324409
2.44034
-8.54202
-5.46337
-3.2742
0.112494
-4.95472
-8.26373
-1.3687
-0.0265096
-0.288511
-7.51701
-2.20975
6.16067
4.54809
-0.865286
-5.65722
-7.13446
-2.675
-4.37928
4.99831
9.22321
5.25548
9.77513
3.44865
10.4942
7.07676
-1.11538
-7.01931
-1.27867
6.66869
5.71097
-0.474683
-9.06446
-8.67401
-0.298136
2.23589
-0.768107
-2.3541
-9.62122
-4.19553
-0.861666
-1.10731
2.96837
-7.45772
-5.75802
-3.47181
-0.371245
-0.0780027
-7.44799
-8.34742
-6.83599
-0.416319
4.40997
-6.84716
-9.59517
-8.61127
-0.589801
0.400484
-7.42332
-1.40439
-0.285186
-1.69735
0.681468
1.6006
8.97017
5.72807
1.73638
3.64477
4.78118
25.9441
27.8325
35.5245
37.5158
67.6328
66.3286
30.2051
27.8922
14.4452
-4.22431
16.6009
-1.29038
16.3416
10.6367
63.5294
10.3818
59.4781
37.4881
40.9308
36.341
40.5434
89.641
84.7754
88.2025
83.5361
50.705
38.9896
19.5304
-1.15582
24.4936
27.8102
7.70787
10.5494
65.8314
64.2263
36.2339
37.6136
33.5661
30.6433
17.4941
-4.90744
-9.71396
5.2437
14.9099
11.7474
-2.82178
-15.0158
-5.53197
5.46031
6.59403
-1.47406
-6.5681
-6.5255
0.179886
1.83767
-0.741348
0.700822
-8.67142
-6.64891
-4.37114
-0.463289
1.4141
-8.23357
-9.19172
-7.44751
-0.0959435
-10.2253
-7.17476
1.03036
1.08959
-1.24617
-2.77392
2.14954
20.465
28.6686
-0.483181
9.13973
22.0724
35.9006
11.2844
15.9329
8.51886
-3.00137
37.6203
13.0986
82.8628
1.16739
47.1853
17.0693
94.7384
59.0551
63.611
105.631
100.761
65.448
74.7007
117.509
114.653
40.7593
32.5361
60.9415
48.1958
43.2798
34.7436
63.2382
50.041
42.3599
19.3147
25.4911
111.908
23.9612
107.382
31.3322
129.622
29.4855
125.156
136.625
123.806
134.796
121.726
152.219
139.072
150.548
136.776
74.0544
58.1982
76.1821
63.0442
76.1333
59.6191
77.8487
63.8295
58.1368
26.1183
12.1765
73.208
-2.25416
27.5676
15.8644
84.5298
-1.67764
34.115
102.662
96.3022
58.9034
59.9181
114.701
109.846
66.6576
72.3202
64.8304
49.5116
25.4005
-9.67113
23.1103
25.3077
4.59137
5.37087
31.9024
41.1021
19.2304
25.8356
29.7136
33.8337
21.3909
-6.26401
0.2474
0.622124
-0.439901
0.355419
21.1175
24.0572
25.4844
26.2854
20.0214
26.336
17.6416
-4.06864
-0.381912
1.60162
-3.09285
-0.579415
24.4825
25.1919
16.7322
18.0059
13.6366
17.9041
11.559
-1.91811
-5.87749
-4.04593
0.749792
0.668297
-0.449627
-6.36201
-9.98756
-7.0535
-5.27455
-0.0655751
-0.822366
-4.51314
-0.28599
-0.47348
-1.20122
-2.36901
10.4672
14.9527
32.1587
-6.20825
5.45131
5.2628
18.701
6.66278
9.54607
4.52682
-2.32484
38.7296
11.6641
79.1861
-1.9843
30.9755
4.40621
52.7537
52.3768
65.3014
96.6959
98.7816
28.6518
37.2869
51.0502
54.0971
36.4597
29.6008
52.4838
41.7312
18.4678
14.8249
27.8817
22.4983
26.4205
11.6634
23.7819
108.908
22.6927
106.435
9.78395
61.4526
10.0699
63.5884
126.504
119.075
126.244
117.48
66.0742
63.8442
68.2254
63.4681
62.7928
49.0483
63.9717
51.0163
33.188
26.3638
33.9999
27.6948
37.3859
17.2439
11.9135
72.1897
-3.36078
26.3408
3.70103
48.4873
-6.86676
15.0658
96.1922
95.7785
55.8574
66.8628
52.864
53.65
30.5084
42.5434
57.3637
49.3964
48.6553
46.8274
31.5924
28.2862
29.7666
30.5132
37.8782
20.8609
-9.69114
31.5454
46.9694
32.1301
43.6659
23.8256
41.9944
41.6866
56.6388
39.6527
42.5001
25.2663
-5.82062
17.7311
2.00477
38.4348
0.955823
41.4426
13.6832
70.2698
47.6357
52.0458
61.5871
60.2832
74.1226
79.2838
100.052
95.6176
61.2464
52.8267
28.6356
3.52823
40.2228
-1.85512
25.097
13.9433
72.1875
6.02397
48.8761
61.1723
58.4198
45.8106
43.9284
100.816
93.7967
76.078
72.253
57.6732
45.988
23.5829
-2.40866
25.7511
20.6541
4.29781
-5.62499
41.2549
39.085
10.362
5.28266
13.7187
14.7759
7.59731
-1.34168
-12.2856
-6.95276
-1.37421
-2.02782
0.0506923
-0.41024
-1.85562
-4.11348
-3.90404
0.29756
-4.72961
1.02354
-0.832325
1.00175
4.9153
-3.07808
-4.25746
-17.0553
-6.21597
-5.93951
-4.09943
-1.55705
-0.458793
-2.53482
-10.0888
-9.99803
-33.3629
-44.3967
-74.3202
-76.7785
-2.12202
-2.97872
-5.45138
-5.70363
-27.1241
-24.0023
-39.9453
-33.1864
-11.585
-5.016
1.07213
2.31609
0.637096
7.33972
-9.81051
-65.9692
-11.3569
-57.5927
-15.2952
-15.6297
-11.5402
-15.4085
-98.8834
-98.4376
-97.3318
-99.1218
-7.56143
-7.06518
-6.98762
-5.58325
-49.1124
-39.3596
-48.9125
-37.9536
-12.8284
-3.3568
-6.91336
-8.42502
-9.74799
-6.12456
2.80888
-78.362
-78.9
-48.1905
-42.3226
-2.85129
0.0982081
6.05816
10.0182
-38.1544
-27.4753
-18.2953
-10.1803
0.432075
5.52671
-7.71291
-6.74506
-5.95242
14.3694
-6.43525
-4.34012
-2.36334
20.2461
9.71547
26.7845
46.2319
62.2361
-7.07995
5.93545