# vtk DataFile Version 3.0
Gravity inversion using rectangular prisms
ASCII
DATASET UNSTRUCTURED_GRID

POINTS	1200	double
100	100	100
100	100	300
100	100	500
100	100	700
100	100	900
100	300	100
100	300	300
100	300	500
100	300	700
100	300	900
100	500	100
100	500	300
100	500	500
100	500	700
100	500	900
100	700	100
100	700	300
100	700	500
100	700	700
100	700	900
100	900	100
100	900	300
100	900	500
100	900	700
100	900	900
100	1100	100
100	1100	300
100	1100	500
100	1100	700
100	1100	900
100	1300	100
100	1300	300
100	1300	500
100	1300	700
100	1300	900
100	1500	100
100	1500	300
100	1500	500
100	1500	700
100	1500	900
100	1700	100
100	1700	300
100	1700	500
100	1700	700
100	1700	900
100	1900	100
100	1900	300
100	1900	500
100	1900	700
100	1900	900
300	100	100
300	100	300
300	100	500
300	100	700
300	100	900
300	300	100
300	300	300
300	300	500
300	300	700
300	300	900
300	500	100
300	500	300
300	500	500
300	500	700
300	500	900
300	700	100
250	650	250
250	650	350
250	750	250
250	750	350
350	650	250
350	650	350
350	750	250
350	750	350
300	700	500
300	700	700
300	700	900
300	900	100
300	900	300
300	900	500
300	900	700
300	900	900
300	1100	100
300	1100	300
300	1100	500
300	1100	700
300	1100	900
300	1300	100
300	1300	300
300	1300	500
300	1300	700
300	1300	900
300	1500	100
300	1500	300
300	1500	500
300	1500	700
300	1500	900
300	1700	100
300	1700	300
300	1700	500
300	1700	700
300	1700	900
300	1900	100
300	1900	300
300	1900	500
300	1900	700
300	1900	900
500	100	100
500	100	300
500	100	500
500	100	700
500	100	900
500	300	100
500	300	300
500	300	500
500	300	700
500	300	900
500	500	100
450	450	250
450	450	350
450	550	250
450	550	350
550	450	250
550	450	350
550	550	250
550	550	350
500	500	500
500	500	700
500	500	900
450	650	50
450	650	150
450	750	50
450	750	150
550	650	50
550	650	150
550	750	50
550	750	150
450	650	250
450	650	350
450	750	250
450	750	350
550	650	250
550	650	350
550	750	250
550	750	350
500	700	500
500	700	700
500	700	900
500	900	100
450	850	250
450	850	350
450	950	250
450	950	350
550	850	250
550	850	350
550	950	250
550	950	350
500	900	500
500	900	700
500	900	900
500	1100	100
500	1100	300
500	1100	500
500	1100	700
500	1100	900
500	1300	100
500	1300	300
500	1300	500
500	1300	700
500	1300	900
500	1500	100
500	1500	300
500	1500	500
500	1500	700
500	1500	900
500	1700	100
500	1700	300
500	1700	500
500	1700	700
500	1700	900
500	1900	100
500	1900	300
500	1900	500
500	1900	700
500	1900	900
700	100	100
700	100	300
700	100	500
700	100	700
700	100	900
700	300	100
650	250	250
650	250	350
650	350	250
650	350	350
750	250	250
750	250	350
750	350	250
750	350	350
700	300	500
700	300	700
700	300	900
650	450	50
650	450	150
650	550	50
650	550	150
750	450	50
750	450	150
750	550	50
750	550	150
650	450	250
650	450	350
650	550	250
650	550	350
750	450	250
750	450	350
750	550	250
750	550	350
650	450	450
650	450	550
650	550	450
650	550	550
750	450	450
750	450	550
750	550	450
750	550	550
700	500	700
700	500	900
650	650	50
650	650	150
650	750	50
650	750	150
750	650	50
750	650	150
750	750	50
750	750	150
650	650	250
650	650	350
650	750	250
650	750	350
750	650	250
750	650	350
750	750	250
750	750	350
650	650	450
650	650	550
650	750	450
650	750	550
750	650	450
750	650	550
750	750	450
750	750	550
700	700	700
700	700	900
650	850	50
650	850	150
650	950	50
650	950	150
750	850	50
750	850	150
750	950	50
750	950	150
650	850	250
650	850	350
650	950	250
650	950	350
750	850	250
750	850	350
750	950	250
750	950	350
700	900	500
700	900	700
700	900	900
700	1100	100
650	1050	250
650	1050	350
650	1150	250
650	1150	350
750	1050	250
750	1050	350
750	1150	250
750	1150	350
700	1100	500
700	1100	700
700	1100	900
700	1300	100
650	1250	250
650	1250	350
650	1350	250
650	1350	350
750	1250	250
750	1250	350
750	1350	250
750	1350	350
700	1300	500
700	1300	700
700	1300	900
700	1500	100
650	1450	250
650	1450	350
650	1550	250
650	1550	350
750	1450	250
750	1450	350
750	1550	250
750	1550	350
700	1500	500
700	1500	700
700	1500	900
700	1700	100
700	1700	300
700	1700	500
700	1700	700
700	1700	900
700	1900	100
700	1900	300
700	1900	500
700	1900	700
700	1900	900
900	100	100
900	100	300
900	100	500
900	100	700
900	100	900
900	300	100
850	250	250
850	250	350
850	350	250
850	350	350
950	250	250
950	250	350
950	350	250
950	350	350
900	300	500
900	300	700
900	300	900
850	450	50
850	450	150
850	550	50
850	550	150
950	450	50
950	450	150
950	550	50
950	550	150
850	450	250
850	450	350
850	550	250
850	550	350
950	450	250
950	450	350
950	550	250
950	550	350
850	450	450
850	450	550
850	550	450
850	550	550
950	450	450
950	450	550
950	550	450
950	550	550
900	500	700
900	500	900
850	650	50
850	650	150
850	750	50
850	750	150
950	650	50
950	650	150
950	750	50
950	750	150
850	650	250
850	650	350
850	750	250
850	750	350
950	650	250
950	650	350
950	750	250
950	750	350
850	650	450
850	650	550
850	750	450
850	750	550
950	650	450
950	650	550
950	750	450
950	750	550
900	700	700
900	700	900
850	850	50
850	850	150
850	950	50
850	950	150
950	850	50
950	850	150
950	950	50
950	950	150
850	850	250
850	850	350
850	950	250
850	950	350
950	850	250
950	850	350
950	950	250
950	950	350
850	850	450
850	850	550
850	950	450
850	950	550
950	850	450
950	850	550
950	950	450
950	950	550
900	900	700
900	900	900
900	1100	100
850	1050	250
850	1050	350
850	1150	250
850	1150	350
950	1050	250
950	1050	350
950	1150	250
950	1150	350
900	1100	500
900	1100	700
900	1100	900
850	1250	50
850	1250	150
850	1350	50
850	1350	150
950	1250	50
950	1250	150
950	1350	50
950	1350	150
850	1250	250
850	1250	350
850	1350	250
850	1350	350
950	1250	250
950	1250	350
950	1350	250
950	1350	350
900	1300	500
900	1300	700
900	1300	900
850	1450	50
850	1450	150
850	1550	50
850	1550	150
950	1450	50
950	1450	150
950	1550	50
950	1550	150
850	1450	250
850	1450	350
850	1550	250
850	1550	350
950	1450	250
950	1450	350
950	1550	250
950	1550	350
900	1500	500
900	1500	700
900	1500	900
900	1700	100
850	1650	250
850	1650	350
850	1750	250
850	1750	350
950	1650	250
950	1650	350
950	1750	250
950	1750	350
900	1700	500
900	1700	700
900	1700	900
900	1900	100
900	1900	300
900	1900	500
900	1900	700
900	1900	900
1100	100	100
1100	100	300
1100	100	500
1100	100	700
1100	100	900
1100	300	100
1050	250	250
1050	250	350
1050	350	250
1050	350	350
1150	250	250
1150	250	350
1150	350	250
1150	350	350
1100	300	500
1100	300	700
1100	300	900
1100	500	100
1050	450	250
1050	450	350
1050	550	250
1050	550	350
1150	450	250
1150	450	350
1150	550	250
1150	550	350
1050	450	450
1050	450	550
1050	550	450
1050	550	550
1150	450	450
1150	450	550
1150	550	450
1150	550	550
1100	500	700
1100	500	900
1050	650	50
1050	650	150
1050	750	50
1050	750	150
1150	650	50
1150	650	150
1150	750	50
1150	750	150
1050	650	250
1050	650	350
1050	750	250
1050	750	350
1150	650	250
1150	650	350
1150	750	250
1150	750	350
1050	650	450
1050	650	550
1050	750	450
1050	750	550
1150	650	450
1150	650	550
1150	750	450
1150	750	550
1100	700	700
1100	700	900
1100	900	100
1050	850	250
1050	850	350
1050	950	250
1050	950	350
1150	850	250
1150	850	350
1150	950	250
1150	950	350
1050	850	450
1050	850	550
1050	950	450
1050	950	550
1150	850	450
1150	850	550
1150	950	450
1150	950	550
1100	900	700
1100	900	900
1050	1050	50
1050	1050	150
1050	1150	50
1050	1150	150
1150	1050	50
1150	1050	150
1150	1150	50
1150	1150	150
1050	1050	250
1050	1050	350
1050	1150	250
1050	1150	350
1150	1050	250
1150	1050	350
1150	1150	250
1150	1150	350
1050	1050	450
1050	1050	550
1050	1150	450
1050	1150	550
1150	1050	450
1150	1050	550
1150	1150	450
1150	1150	550
1100	1100	700
1100	1100	900
1050	1250	50
1050	1250	150
1050	1350	50
1050	1350	150
1150	1250	50
1150	1250	150
1150	1350	50
1150	1350	150
1050	1250	250
1050	1250	350
1050	1350	250
1050	1350	350
1150	1250	250
1150	1250	350
1150	1350	250
1150	1350	350
1050	1250	450
1050	1250	550
1050	1350	450
1050	1350	550
1150	1250	450
1150	1250	550
1150	1350	450
1150	1350	550
1100	1300	700
1100	1300	900
1050	1450	50
1050	1450	150
1050	1550	50
1050	1550	150
1150	1450	50
1150	1450	150
1150	1550	50
1150	1550	150
1050	1450	250
1050	1450	350
1050	1550	250
1050	1550	350
1150	1450	250
1150	1450	350
1150	1550	250
1150	1550	350
1050	1450	450
1050	1450	550
1050	1550	450
1050	1550	550
1150	1450	450
1150	1450	550
1150	1550	450
1150	1550	550
1100	1500	700
1100	1500	900
1050	1650	50
1050	1650	150
1050	1750	50
1050	1750	150
1150	1650	50
1150	1650	150
1150	1750	50
1150	1750	150
1050	1650	250
1050	1650	350
1050	1750	250
1050	1750	350
1150	1650	250
1150	1650	350
1150	1750	250
1150	1750	350
1100	1700	500
1100	1700	700
1100	1700	900
1100	1900	100
1100	1900	300
1100	1900	500
1100	1900	700
1100	1900	900
1300	100	100
1300	100	300
1300	100	500
1300	100	700
1300	100	900
1300	300	100
1250	250	250
1250	250	350
1250	350	250
1250	350	350
1350	250	250
1350	250	350
1350	350	250
1350	350	350
1300	300	500
1300	300	700
1300	300	900
1250	450	50
1250	450	150
1250	550	50
1250	550	150
1350	450	50
1350	450	150
1350	550	50
1350	550	150
1250	450	250
1250	450	350
1250	550	250
1250	550	350
1350	450	250
1350	450	350
1350	550	250
1350	550	350
1250	450	450
1250	450	550
1250	550	450
1250	550	550
1350	450	450
1350	450	550
1350	550	450
1350	550	550
1300	500	700
1300	500	900
1250	650	50
1250	650	150
1250	750	50
1250	750	150
1350	650	50
1350	650	150
1350	750	50
1350	750	150
1250	650	250
1250	650	350
1250	750	250
1250	750	350
1350	650	250
1350	650	350
1350	750	250
1350	750	350
1250	650	450
1250	650	550
1250	750	450
1250	750	550
1350	650	450
1350	650	550
1350	750	450
1350	750	550
1250	650	650
1250	650	750
1250	750	650
1250	750	750
1350	650	650
1350	650	750
1350	750	650
1350	750	750
1300	700	900
1250	850	50
1250	850	150
1250	950	50
1250	950	150
1350	850	50
1350	850	150
1350	950	50
1350	950	150
1250	850	250
1250	850	350
1250	950	250
1250	950	350
1350	850	250
1350	850	350
1350	950	250
1350	950	350
1250	850	450
1250	850	550
1250	950	450
1250	950	550
1350	850	450
1350	850	550
1350	950	450
1350	950	550
1300	900	700
1300	900	900
1250	1050	50
1250	1050	150
1250	1150	50
1250	1150	150
1350	1050	50
1350	1050	150
1350	1150	50
1350	1150	150
1250	1050	250
1250	1050	350
1250	1150	250
1250	1150	350
1350	1050	250
[...]
CELL_DATA	1200
SCALARS model double 1
LOOKUP_TABLE table0
0.0210895
1.05627
-11.6371
-7.69185
-5.77235
0.0663504
0.819524
-13.1711
-6.57721
-4.28995
-0.313961
-1.59065
-15.3522
-4.66813
-2.1708
-0.692128
-3.00017
-16.7861
-4.19062
-1.3023
-1.07777
0.775151
-17.5157
-6.41638
-2.59899
-0.770631
3.52107
-16.4959
-8.95374
-4.65336
-0.503902
4.12557
-12.5708
-9.2977
-5.9158
-0.368349
4.60382
-7.26788
-8.10576
-6.7789
-0.261317
3.4038
-4.0182
-6.99365
-8.02891
-0.236801
3.89893
-3.89542
-7.23436
-8.58512
-0.271711
0.07645
-12.3698
-6.62532
-4.44204
-0.464116
-4.72245
-10.6414
-1.02789
-0.0503279
-1.81701
-3.81245
-4.74453
7.96819
6.16189
-2.35276
-5.72835
-1.75169
-3.2788
0.840767
2.8262
11.8259
3.82434
12.4429
-0.28339
12.3312
9.26325
-2.58007
-2.5268
-8.26388
6.60305
6.56905
-1.28308
-5.94531
-17.9142
-2.67725
1.09778
-1.09161
-1.10694
-18.7442
-7.99142
-3.27549
-1.19174
3.66529
-13.2766
-9.72369
-6.45271
-0.59267
4.46452
-8.62511
-10.1829
-9.35674
-0.552534
5.68811
-7.41065
-10.4602
-10.2397
-0.881881
-3.5126
-9.84691
-1.60106
-1.21851
-3.05551
2.03693
2.9224
12.9705
7.85797
1.42806
-2.46589
13.9228
16.8579
33.2209
26.803
41.4536
57.1809
68.5274
33.5799
35.3562
20.4073
-5.37601
23.0345
-2.54328
23.4782
7.36159
64.487
8.10131
60.8448
29.8423
43.9874
30.1012
44.1733
80.3307
87.6916
79.5145
87.7503
54.4632
47.0001
27.1383
-0.989453
18.8121
34.045
4.93149
17.6563
56.1453
68.9359
28.413
42.0518
27.9731
36.073
23.2707
-6.08227
-4.63708
-3.47396
16.8898
14.2342
-3.86832
-8.63066
-14.9159
4.39313
6.38708
-2.11985
-3.63229
-15.0658
-3.27884
-0.630502
-1.00632
0.875827
-15.3427
-9.69492
-7.94973
-0.51316
2.4719
-14.9792
-11.8029
-10.3921
-0.974787
-8.15593
-6.09243
3.21093
0.70585
-2.61051
-6.66963
10.8165
14.8103
31.6172
-3.39154
13.5357
18.9388
35.3645
18.2078
23.4726
12.1241
-4.51294
41.2666
9.14407
81.2558
-0.707839
50.8907
13.327
93.003
50.6859
62.9689
96.9572
100.186
60.6365
70.352
113.117
111.08
53.5741
26.9039
80.7086
51.643
60.4731
36.8899
86.7164
60.4315
54.0785
27.6721
19.2033
106.238
18.9402
101.948
23.9733
122.5
23.6333
118.568
129.058
126.8
126.635
126.516
148.058
140.102
144.777
139.341
99.0318
66.7193
99.2356
72.1649
106.19
77.0492
105.795
81.521
70.9566
36.8053
10.0447
70.0257
-0.806432
28.6592
14.0278
81.5908
1.21355
36.0761
92.2585
99.9457
48.0737
62.4017
106.278
109.355
56.2631
69.2032
66.9742
60.3964
35.056
-9.58377
14.7459
29.5874
-2.84053
11.9866
21.3328
37.7032
8.46165
25.3752
25.0783
42.375
28.8541
-6.66486
-3.18459
7.7875
-0.428404
7.65357
14.0774
26.2576
21.78
30.5056
15.4021
31.9201
22.8885
-4.65632
1.24254
7.09272
0.81185
4.50655
22.8453
29.1804
17.1532
21.2695
7.43211
19.1559
13.1365
-2.55312
-0.261812
-13.1535
0.325613
-1.28153
-0.89727
-4.30074
-19.2615
-7.1217
-6.97131
-0.490003
-4.50871
-2.44435
1.21873
-1.97335
-2.69612
-0.316529
11.3066
17.7624
29.5494
0.743517
4.7249
11.6973
15.8502
14.0395
14.3737
5.34766
-2.74884
43.7512
9.72913
78.4274
-3.02843
30.6575
3.87767
51.2438
53.6376
59.5535
98.2111
93.0009
31.3738
31.9186
54.5956
48.4521
52.2557
32.6163
72.5158
49.8099
28.1177
16.8635
38.9124
26.3804
33.9334
15.066
19.5949
103.99
19.5205
101.298
9.29424
60.6635
10.1441
59.7863
127.213
116.139
124.148
114.869
68.7625
59.2135
66.9553
57.5515
87.6169
62.5344
86.5559
65.1013
45.8899
32.8367
44.8427
34.4149
46.4068
22.4246
11.3383
69.2462
-0.0981334
29.4032
4.87731
44.598
-3.58668
16.6747
90.7983
89.1812
48.0487
57.4809
47.9883
43.8152
23.799
29.519
68.4719
57.2331
52.2257
50.8578
36.6604
32.6747
30.151
32.6132
47.6996
27.7043
-9.07712
21.7911
36.7698
21.486
37.7276
16.2557
28.3879
33.1681
47.303
38.8411
54.4824
34.8331
-6.07033
19.2689
0.64636
39.2805
0.614256
42.7808
9.96627
68.0234
39.651
51.4175
55.8393
63.9748
67.1208
77.3962
94.0354
100.057
63.505
65.1844
39.7981
2.15533
39.7281
-1.26162
24.195
11.0149
69.0215
5.49736
46.3426
56.8531
62.7958
41.9786
46.5194
94.9063
99.0729
68.998
74.3345
55.9548
53.8014
31.1937
-3.15506
21.281
22.1539
2.26377
-2.27922
32.7646
38.492
5.39521
6.44103
2.37191
19.3414
9.37167
-2.18868
-8.27773
-15.4674
4.03484
-0.354475
0.0776535
2.54806
-0.0799028
-6.0911
-7.84279
0.32549
3.16
-0.898155
3.62969
-1.79604
6.97965
-8.35295
-2.93349
-20.1549
-7.30634
-9.34336
-9.44441
-2.77928
3.23389
-5.55885
-3.37631
-12.1626
-26.9854
-43.8562
-63.2329
-72.4747
-3.28891
-3.64745
-8.64919
-8.55073
-34.6606
-24.564
-51.1111
-38.0518
-15.1261
-12.1734
-0.394396
7.47967
0.00534367
5.6524
-12.9129
-57.6744
-13.2439
-55.4272
-9.21135
-18.1746
-10.1404
-20.531
-89.7597
-94.9809
-92.0305
-98.024
-13.2294
-11.3994
-14.8323
-11.2608
-65.8188
-47.9721
-68.4434
-48.7751
-15.5392
-10.3274
-7.60649
-10.1577
-17.7054
-7.75921
-8.42323
-73.9057
-79.132
-43.347
-47.2568
-12.0197
-5.73248
-3.85192
3.52737
-56.4447
-37.7563
-33.4418
-20.0497
3.07228
3.50578
-9.23904
-1.64476
-5.29159
18.981
-7.3896
-0.344841
-2.2144
23.367
6.08155
15.0391
41.7289
54.0253
-4.98899
-1.58318
45.9241
53.4814
15.0393
20.5127
48.1967
43.602
2.93576
9.3455
45.7158
39.6231
45.2958
28.2208
5.77409
56.622
17.3668
91.3964
9.85988
66.8693
21.5313
104.202
89.0665
98.6438
124.621
130.495
102.783
109.822
142.295
146.925
81.6683
62.0994
105.014
75.7194
88.577
69.049
115.246
86.622
84.6444
47.8668
18.7291
92.6041
9.26889
60.0429
21.7656
104.42
11.0583
67.9204
125.69
130.28
90.4597
98.0388
141.985
147.321
101.42
111.448
103.371
73.8125
80.8961
58.116
115.063
87.1959
91.2319
70.6286
79.8388
43.6023
-1.5748
22.9107
-6.1099
0.0958939
-0.0523216
25.6817
-4.80335
2.03189
41.7732
51.5065
5.19572
10.2528
46.029
59.2602
5.4623
13.4775
11.3416
35.1674
17.7089
-2.68812
-9.83147
-13.407
14.3065
5.31724
0.384872
9.31713
3.66937
-9.65654
-11.4138
2.02641
8.88117
-13.0762
-10.876
-34.1703
9.54194
-16.4189
-12.7672
-39.6981
-21.5413
-25.2715
-20.0911
1.26812
-34.0618
-13.2772
-78.428
-2.03347
-44.3979
-15.7917
-88.1092
-50.941
-71.5773
-107.032
-116.835
-57.4062
-80.3033
-118.677
-128.701
-56.613
-39.5403
-84.1804
-63.3333
-62.6956
-44.6713
-93.177
-71.4691
-48.1567
-32.7038
-23.1109
-105.295
-24.5065
-105.44
-26.3459
-120.112
-28.0928
-120.266
-147.984
-149.296
-151.833
-152.866
-163.872
-163.821
-167.744
-167.323
-106.847
-79.7543
-109.969
-81.1423
-118.469
-90.307
-121.562
-91.7286
-47.7363
-32.7018
-45.1077
-32.1863
-56.9605
-44.9046
-53.7005
-43.4771
-36.0554
-16.957
-79.9505
-4.39868
-34.8493
-18.509
-87.2191
-4.72679
-39.9479
-120.438
-125.046
-68.4821
-75.8487
-130.837
-136.558
-72.2102
-84.347
-90.7642
-65.4207
-57.371
-41.0003
-99.9228
-74.5268
-63.7015
-48.2883
-31.9721
-18.4904
-3.75852
-7.33204
0.279773
23.9285
-1.37962
-7.54056
0.384981
20.3491
-14.2728
-15.5624
45.0843
48.1339
-15.474
-22.8021
40.3312
38.826
-9.44194
-2.84024
39.533
32.2682
-14.5443
-8.89071
32.208
25.556
25.8614
15.1939
12.4318
68.6523
22.3393
104.76
11.6488
61.6839
21.2919
94.3577
103.643
108.739
142.981
146.703
92.8176
95.181
127.684
129.63
86.2735
66.907
113.536
86.4034
74.8561
59.3198
98.3783
77.2996
77.9805
42.3256
22.2141
103.877
12.0318
67.1724
20.4566
92.0881
10.7331
58.4138
141.496
147.176
99.8642
111.274
124.755
130.191
86.1561
97.8672
113.985
88.2834
90.7595
72.3221
99.6876
80.8189
80.4847
67.42
78.2871
41.8142
0.567796
25.351
-4.02629
2.00295
0.966495
21.6615
-3.08259
1.45875
44.5612
59.3846
4.37221
13.7426
37.226
51.5594
1.5166
10.5271
11.2547
34.9567
17.3124
-2.0908
-10.6717
-13.4556
14.5666
5.26538
0.127146
8.90914
9.83416
-6.01906
-9.57631
2.64952
11.2225
-15.6872
-6.00565
-35.5706
9.68201
-11.5372
0.340583
-25.1355
-11.9221
-22.8138
-18.7878
-1.97333
-35.8155
-12.3789
-70.9901
1.97938
-17.5493
-4.49117
-40.2966
-42.479
-70.1053
-94.0275
-110.464
-19.4377
-49.9044
-51.6863
-77.6002
-52.2898
-39.334
-79.6045
-64.2685
-34.2289
-25.4109
-56.1484
-46.3552
-49.2915
-32.3594
-20.8542
-97.9272
-21.174
-97.1641
-8.6847
-54.7693
-9.58879
-54.1937
-132.828
-141.228
-136.139
-143.89
-77.7292
-98.1253
-80.7334
-100.097
-103.218
-82.5891
-106.285
-84.1715
-75.5959
-62.8193
-78.4537
-64.5787
-61.3467
-37.5956
-13.2247
-68.7431
-2.76353
-33.5054
-5.57435
-39.6489
0.719866
-18.6704
-104.131
-117.223
-55.1828
-73.0927
-60.4424
-82.0666
-30.1237
-51.0716
-87.2343
-68.9092
-55.7725
-45.6215
-64.2313
-52.8803
-41.147
-35.4951
-40.6238
-23.6622
0.108416
-10.2709
-22.2909
31.4587
27.6381
-4.27666
-16.9132
19.4142
16.7802
-14.0084
-11.0901
23.6018
17.9901
-10.0904
-8.48337
16.5161
12.8014
8.71088
4.1503
8.84794
48.5654
16.569
72.148
4.08519
25.8702
9.10074
43.4882
70.9829
72.725
97.4227
99.371
42.3926
46.2106
58.701
63.9669
56.7739
46.282
71.9864
59.8451
40.0398
34.496
50.9863
45.1704
49.8636
26.3574
15.7735
69.7892
8.01829
45.3708
8.11942
41.6456
2.96467
26.1169
93.6627
99.4794
63.1608
74.4951
55.876
64.5156
37.1184
48.1562
49.2645
50.5109
26.4995
-0.875257
26.0088
38.541
-0.504708
7.01403
14.9058
24.0445
-2.29061
2.23357
0.599546
18.9105
8.00289
-0.703427
-10.4761
-16.1964
4.41224
-0.951037
-0.299744
3.99045
15.8383
0.445201
-5.24108
1.13152
0.778233
9.53181
-7.69413
-9.86718
1.95268
-0.710998
-30.6702
-14.9138
-44.3641
11.0935
-11.2392
6.0825
-17.6519
-0.950528
-21.4949
-17.4277
0.511414
-18.9562
0.435792
-17.822
2.31775
-1.58323
2.60197
-2.11325
-28.3793
-55.3639
-30.7169
-56.2204
1.71967
-22.9702
-0.0465297
-22.5451
-12.7582
-29.5842
-21.2666
1.07292
-22.1494
-45.2506
-9.56074
-28.5949
0.403123
-16.48
2.30194
-9.60085
-9.79915
-21.1102
-15.2216
-0.326477
1.25412
-10.8199
9.89266
6.74245
1.99697
-5.48816
3.81512
0.585217
0.301765
0.680365
-2.00034
-0.83948
19.6457
21.2113
26.4536
30.7695
4.17704
2.81531
4.96385
6.28742
8.10238
17.9997
8.24882
-0.588564
24.5796
31.635
16.8615
23.8621
4.13124
7.53672
2.69852
5.89985
6.3513
16.1229
7.0209
-0.961866
1.01563
-11.3973
-0.244744
-3.85037
0.115562
-3.58575
-17.8524
-7.30552
-8.69802
-0.449937
2.15881
17.4622
2.85426
-3.57667
-0.236981
3.11121
15.7255
-1.09562
-5.62719
0.34733
7.29117
12.8436
-8.74056
-9.85011
0.409216
13.1589
-2.96734
12.4794
-1.05387
14.5577
0.254561
14.3184
2.53316
8.19562
-14.2072
-12.5797
0.346247
5.75539
5.01746
-11.0435
-9.89923
-0.127563
-1.44707
0.0215235
-0.601218
-3.1116
-0.436452
-6.84264
-4.32921
7.41602
1.9388
-1.07136
-3.89757
-5.95498
4.77968
0.0476019
-0.592987
0.849492
-13.454
-5.82084
-7.73771
-0.0301845
-0.388208
-16.9599
-10.065
-10.774
SCALARS m0 double 1
LOOKUP_TABLE table1
0
0
0
0
0
0
0
0
0
0
0
0
0
0
0
0
0
0
0
0
0
0
0
0
0
0
0
0
0
0
0
0
0
0
0
0
0
0
0
0
0
0
0
0
0
0
0
0
0
0
0
0
0
0
0
0
0
0
0
0
0
0
0
0
0
0
0
0
0
0
0
0
0
0
0
0
0
0
0
0
0
0
0
0
0
0
0
0
0
0
0
0
0
0
0
0
0
0
0
0
0
0
0
0
0
0
0
0
0
0
0
0
0
0
0
0
0
0
0
0
0
0
0
0
0
0
0
0
0
0
0
0
0
0
0
0
0
0
0
0
0
0
0
0
0
0
0
0
0
0
0
0
0
0
0
0
0
0
0
0
0
0
0
0
0
0
0
0
0
0
0
0
0
0
0
0
0
0
0
0
0
0
0
0
0
0
0
0
0
0
0
0
0
0
0
0
0
0
0
0
0
0
0
0
0
0
0
0
0
0
0
0
0
0
0
0
0
0
0
0
0
0
0
0
0
0
0
0
0
0
0
0
0
0
0
0
0
0
0
0
0
0
0
0
0
0
0
0
0
0
0
0
0
0
0
0
0
0
0
0
0
0
0
0
0
0
0
0
0
0
0
0
0
0
0
0
0
0
0
0
0
0
0
0
0
0
0
0
0
0
0
0
0
0
0
0
0
0
0
0
0
0
0
0
0
0
0
0
0
0
0
0
0
0
0
0
0
0
0
0
0
0
0
0
0
0
0
0
0
0
0
0
0
0
0
0
0
0
0
0
0
0
0
0
0
0
0
0
0
0
0
0
0
0
0
0
0
0
0
0
0
0
0
0
0
0
0
0
0
0
0
0
0
0
0
0
0
0
0
0
0
0
0
0
0
0
0
0
0
0
0
0
0
0
0
0
0
0
0
0
0
0
0
0
0
0
0
0
0
0
0
0
0
0
0
0
0
0
0
0
0
0
0
0
0
0
0
0
0
0
0
0
0
0
0
0
0
0
0
0
0
0
0
0
0
0
0
0
0
0
0
0
0
0
0
0
0
0
0
0
0
0
0
0
0
0
0
0
0
0
0
0
0
0
0
0
0
0
0
0
0
0
0
0
0
0
0
0
0
0
0
0
0
0
0
0
0
0
0
0
0
0
0
0
0
0
0
0
0
0
0
0
0
0
0
0
0
0
0
0
0
0
0
0
0
0
0
0
0
0
0
0
0
0
0
0
0
0
0
0
0
0
0
0
0
0
0
0
0
0
0
0
0
0
0
0
0
0
0
0
0
0
0
0
0
0
0
0
0
0
0
0
0
0
0
0
0
0
0
0
0
0
0
0
0
0
0
0
0
0
0
0
0
0
0
0
0
0
0
0
0
0
0
0
0
0
0
0
0
0
0
0
0
0
0
0
0
0
0
0
0
0
0
0
0
0
0
0
0
0
0
0
0
0
0
0
0
0
0
0
0
0
0
0
0
0
0
0
0
0
0
0
0
0
0
0
0
0
0
0
0
0
0
0
0
0
0
0
0
0
0
0
0
0
0
0
0
0
0
0
0
0
0
0
0
0
0
0
0
0
0
0
0
0
0
0
0
0
0
0
0
0
0
0
0
0
0
0
0
0
0
0
0
0
0
0
0
0
0
0
0
0
0
0
0
0
0
0
0
0
0
0
0
0
0
0
0
0
0
0
0
0
0
0
0
0
0
0
0
0
0
0
0
0
0
0
0
0
0
0
0
0
0
0
0
0
0
0
0
0
0
0
0
0
0
0
0
0
0
0
0
0
0
0
0
0
0
0
0
0
0
0
0
0
0
0
0
0
0
0
0
0
0
0
0
0
0
0
0
0
0
0
0
0
0
0
0
0
0
0
0
0
0
0
0
0
0
0
0
0
0
0
0
0
0
0
0
0
0
0
0
0
0
0
0
0
0
0
0
0
0
0
0
0
0
0
0
0
0
0
0
0
0
0
0
0
0
0
0
0
0
0
0
0
0
0
0
0
0
0
0
0
0
0
0
0
0
0
0
0
0
0
0
0
0
0
0
0
0
0
0
0
0
0
0
0
0
0
0
0
0
0
0
0
0
0
0
0
0
0
0
0
0
0
0
0
0
0
0
0
0
0
0
0
0
0
0
0
0
0
0
0
0
0
0
0
0
0
0
0
0
0
0
0
0
0
0
0
0
0
0
0
0
0
0
0
0
0
0
0
0
0
0
0
0
0
0
0
0
0
0
0
0
0
0
0
0
0
0
0
0
0
0
0
0
0
0
0
0
0
0
0
0
0
0
0
0
0
0
0
0
0
0
0
0
0
0
0
0
0
0
0
0
0
0
0
0
0
0
0
0
0
0
0
0
0
0
0
0
0
0
0
0
0
0
0
0
0
0
0
0
0
0
0
0
0
0
0
0
0
0
0
0
0
0
0
0
0
0
0
0
0
0
0
0
0
0
0
0
0
0
0
0
0
0
0
0
0
0
0
0
0
0
0
0
0
0
0
0
0
0
0
0
0
0
0
0
0
0
0
0
0
0
0
0
0
0
0
0
0
0
0
0
0
0
0
0
0
0
0
0
0
0
0
0
0
0
0
0
0
0
0
0
0
0
0
0
0
0
0
0
0
0
0
0
0
0
0
0
0
0
0
0
0
0
0
0
0
0
0
0
0
0
0
0
0
0
0
0
0
0
0
0
0
0
0
0
0
0
0
0
0
0
0
0
0
0
0
0
0
SCALARS m0s double 1
LOOKUP_TABLE table2
0
0
0
0
0
0
0
0
0
0
0
0
0
0
0
0
0
0
0
0
0
0
0
0
0
0
0
0
0
0
0
0
0
0
0
0
0
0
0
0
0
0
0
0
0
0
0
0
0
0
0
0
0
0
0
0
0
0
0
0
0
0
0
0
0
0
0
0
0
0
0
0
0
0
0
0
0
0
0
0
0
0
0
0
0
0
0
0
0
0
0
0
0
0
0
0
0
0
0
0
0
0
0
0
0
0
0
0
0
0
0
0
0
0
0
0
0
0
0
0
0
0
0
0
0
0
0
0
0
0
0
0
0
0
0
0
0
0
0
0
0
0
0
0
0
0
0
0
0
0
0
0
0
0
0
0
0
0
0
0
0
0
0
0
0
0
0
0
0
0
0
0
0
0
0
0
0
0
0
0
0
0
0
0
0
0
0
0
0
0
0
0
0
0
0
0
0
0
0
0
0
0
0
0
0
0
0
0
0
0
0
0
0
0
0
0
0
0
0
0
0
0
0
0
0
0
0
0
0
0
0
0
0
0
0
0
0
0
0
0
0
0
0
0
0
0
0
0
0
0
0
0
0
0
0
0
0
0
0
0
0
0
0
0
0
0
0
0
0
0
0
0
0
0
0
0
0
0
0
0
0
0
0
0
0
0
0
0
0
0
0
0
0
0
0
0
0
0
0
0
0
0
0
0
0
0
0
0
0
0
0
0
0
0
0
0
0
0
0
0
0
0
0
0
0
0
0
0
0
0
0
0
0
0
0
0
0
0
0
0
0
0
0
0
0
0
0
0
0
0
0
0
0
0
0
0
0
0
0
0
0
0
0
0
0
0
0
0
0
0
0
0
0
0
0
0
0
0
0
0
0
0
0
0
0
0
0
0
0
0
0
0
0
0
0
0
0
0
0
0
0
0
0
0
0
0
0
0
0
0
0
0
0
0
0
0
0
0
0
0
0
0
0
0
0
0
0
0
0
0
0
0
0
0
0
0
0
0
0
0
0
0
0
0
0
0
0
0
0
0
0
0
0
0
0
0
0
0
0
0
0
0
0
0
0
0
0
0
0
0
0
0
0
0
0
0
0
0
0
0
0
0
0
0
0
0
0
0
0
0
0
0
0
0
0
0
0
0
0
0
0
0
0
0
0
0
0
0
0
0
0
0
0
0
0
0
0
0
0
0
0
0
0
0
0
0
0
0
0
0
0
0
0
0
0
0
0
0
0
0
0
0
0
0
0
0
0
0
0
0
0
0
0
0
0
0
0
0
0
0
0
0
0
0
0
0
0
0
0
0
0
0
0
0
0
0
0
0
0
0
0
0
0
0
0
0
0
0
0
0
0
0
0
0
0
0
0
0
0
0
0
0
0
0
0
0
0
0
0
0
0
0
0
0
0
0
0
0
0
0
0
0
0
0
0
0
0
0
0
0
0
0
0
0
0
0
0
0
0
0
0
0
0
0
0
0
0
0
0
0
0
0
0
0
0
0
0
0
0
0
0
0
0
0
0
0
0
0
0
0
0
0
0
0
0
0
0
0
0
0
0
0
0
0
0
0
0
0
0
0
0
0
0
0
0
0
0
0
0
0
0
0
0
0
0
0
0
0
0
0
0
0
0
0
0
0
0
0
0
0
0
0
0
0
0
0
0
0
0
0
0
0
0
0
0
0
0
0
0
0
0
0
0
0
0
0
0
0
0
0
0
0
0
0
0
0
0
0
0
0
0
0
0
0
0
0
0
0
0
0
0
0
0
0
0
0
0
0
0
0
0
0
0
0
0
0
0
0
0
0
0
0
0
0
0
0
0
0
0
0
0
0
0
0
0
0
0
0
0
0
0
0
0
0
0
0
0
0
0
0
0
0
0
0
0
0
0
0
0
0
0
0
0
0
0
0
0
0
0
0
0
0
0
0
0
0
0
0
0
0
0
0
0
0
0
0
0
0
0
0
0
0
0
0
0
0
0
0
0
0
0
0
0
0
0
0
0
0
0
0
0
0
0
0
0
0
0
0
0
0
0
0
0
0
0
0
0
0
0
0
0
0
0
0
0
0
0
0
0
0
0
0
0
0
0
0
0
0
0
0
0
0
0
0
0
0
0
0
0
0
0
0
0
0
0
0
0
0
0
0
0
0
0
0
0
0
0
0
0
0
0
0
0
0
0
0
0
0
0
0
0
0
0
0
0
0
0
0
0
0
0
0
0
0
0
0
0
0
0
0
0
0
0
0
0
0
0
0
0
0
0
0
0
0
0
0
0
0
0
0
0
0
0
0
0
0
0
0
0
0
0
0
0
0
0
0
0
0
0
0
0
0
0
0
0
0
0
0
0
0
0
0
0
0
0
0
0
0
0
0
0
0
0
0
0
0
0
0
0
0
0
0
0
0
0
0
0
0
0
0
0
0
0
0
0
0
0
0
0
0
0
0
0
0
0
0
0
0
0
0
0
0
0
0
0
0
0
0
0
0
0
0
0
0
0
0
0
0
0
0
0
0
0
0
0
0
0
0
0
0
0
0
0
0
0
0
0
0
0
0
0
0
0
0
0
0
0
0
0
0
0
0
0
0
0
0
0
0
0
0
0
0
0
0
0
0
0
0
0
0
0
0
0
0
0
0
0
0
0
0
0
0
0
0
0
0
0
0
0
0
0
0
0
0
0
0
0
0
0
0
0
0
0
0
0
0
0
0
0
0
0
0
0
0
0
0
0
0
0
0

POINT_DATA	1200
SCALARS model double 1
LOOKUP_TABLE table0
0.0210895
1.05627
-11.6371
-7.69185
-5.77235
0.0663504
0.819524
-13.1711
-6.57721
-4.28995
-0.313961
-1.59065
-15.3522
-4.66813
-2.1708
-0.692128
-3.00017
-16.7861
-4.19062
-1.3023
-1.07777
0.775151
-17.5157
-6.41638
-2.59899
-0.770631
3.52107
-16.4959
-8.95374
-4.65336
-0.503902
4.12557
-12.5708
-9.2977
-5.9158
-0.368349
4.60382
-7.26788
-8.10576
-6.7789
-0.261317
3.4038
-4.0182
-6.99365
-8.02891
-0.236801
3.89893
-3.89542
-7.23436
-8.58512
-0.271711
0.07645
-12.3698
-6.62532
-4.44204
-0.464116
-4.72245
-10.6414
-1.02789
-0.0503279
-1.81701
-3.81245
-4.74453
7.96819
6.16189
-2.35276
-5.72835
-1.75169
-3.2788
0.840767
2.8262
11.8259
3.82434
12.4429
-0.28339
12.3312
9.26325
-2.58007
-2.5268
-8.26388
6.60305
6.56905
-1.28308
-5.94531
-17.9142
-2.67725
1.09778
-1.09161
-1.10694
-18.7442
-7.99142
-3.27549
-1.19174
3.66529
-13.2766
-9.72369
-6.45271
-0.59267
4.46452
-8.62511
-10.1829
-9.35674
-0.552534
5.68811
-7.41065
-10.4602
-10.2397
-0.881881
-3.5126
-9.84691
-1.60106
-1.21851
-3.05551
2.03693
2.9224
12.9705
7.85797
1.42806
-2.46589
13.9228
16.8579
33.2209
26.803
41.4536
57.1809
68.5274
33.5799
35.3562
20.4073
-5.37601
23.0345
-2.54328
23.4782
7.36159
64.487
8.10131
60.8448
29.8423
43.9874
30.1012
44.1733
80.3307
87.6916
79.5145
87.7503
54.4632
47.0001
27.1383
-0.989453
18.8121
34.045
4.93149
17.6563
56.1453
68.9359
28.413
42.0518
27.9731
36.073
23.2707
-6.08227
-4.63708
-3.47396
16.8898
14.2342
-3.86832
-8.63066
-14.9159
4.39313
6.38708
-2.11985
-3.63229
-15.0658
-3.27884
-0.630502
-1.00632
0.875827
-15.3427
-9.69492
-7.94973
-0.51316
2.4719
-14.9792
-11.8029
-10.3921
-0.974787
-8.15593
-6.09243
3.21093
0.70585
-2.61051
-6.66963
10.8165
14.8103
31.6172
-3.39154
13.5357
18.9388
35.3645
18.2078
23.4726
12.1241
-4.51294
41.2666
9.14407
81.2558
-0.707839
50.8907
13.327
93.003
50.6859
62.9689
96.9572
100.186
60.6365
70.352
113.117
111.08
53.5741
26.9039
80.7086
51.643
60.4731
36.8899
86.7164
60.4315
54.0785
27.6721
19.2033
106.238
18.9402
101.948
23.9733
122.5
23.6333
118.568
129.058
126.8
126.635
126.516
148.058
140.102
144.777
139.341
99.0318
66.7193
99.2356
72.1649
106.19
77.0492
105.795
81.521
70.9566
36.8053
10.0447
70.0257
-0.806432
28.6592
14.0278
81.5908
1.21355
36.0761
92.2585
99.9457
48.0737
62.4017
106.278
109.355
56.2631
69.2032
66.9742
60.3964
35.056
-9.58377
14.7459
29.5874
-2.84053
11.9866
21.3328
37.7032
8.46165
25.3752
25.0783
42.375
28.8541
-6.66486
-3.18459
7.7875
-0.428404
7.65357
14.0774
26.2576
21.78
30.5056
15.4021
31.9201
22.8885
-4.65632
1.24254
7.09272
0.81185
4.50655
22.8453
29.1804
17.1532
21.2695
7.43211
19.1559
13.1365
-2.55312
-0.261812
-13.1535
0.325613
-1.28153
-0.89727
-4.30074
-19.2615
-7.1217
-6.97131
-0.490003
-4.50871
-2.44435
1.21873
-1.97335
-2.69612
-0.316529
11.3066
17.7624
29.5494
0.743517
4.7249
11.6973
15.8502
14.0395
14.3737
5.34766
-2.74884
43.7512
9.72913
78.4274
-3.02843
30.6575
3.87767
51.2438
53.6376
59.5535
98.2111
93.0009
31.3738
31.9186
54.5956
48.4521
52.2557
32.6163
72.5158
49.8099
28.1177
16.8635
38.9124
26.3804
33.9334
15.066
19.5949
103.99
19.5205
101.298
9.29424
60.6635
10.1441
59.7863
127.213
116.139
124.148
114.869
68.7625
59.2135
66.9553
57.5515
87.6169
62.5344
86.5559
65.1013
45.8899
32.8367
44.8427
34.4149
46.4068
22.4246
11.3383
69.2462
-0.0981334
29.4032
4.87731
44.598
-3.58668
16.6747
90.7983
89.1812
48.0487
57.4809
47.9883
43.8152
23.799
29.519
68.4719
57.2331
52.2257
50.8578
36.6604
32.6747
30.151
32.6132
47.6996
27.7043
-9.07712
21.7911
36.7698
21.486
37.7276
16.2557
28.3879
33.1681
47.303
38.8411
54.4824
34.8331
-6.07033
19.2689
0.64636
39.2805
0.614256
42.7808
9.96627
68.0234
39.651
51.4175
55.8393
63.9748
67.1208
77.3962
94.0354
100.057
63.505
65.1844
39.7981
2.15533
39.7281
-1.26162
24.195
11.0149
69.0215
5.49736
46.3426
56.8531
62.7958
41.9786
46.5194
94.9063
99.0729
68.998
74.3345
55.9548
53.8014
31.1937
-3.15506
21.281
22.1539
2.26377
-2.27922
32.7646
38.492
5.39521
6.44103
2.37191
19.3414
9.37167
-2.18868
-8.27773
-15.4674
4.03484
-0.354475
0.0776535
2.54806
-0.0799028
-6.0911
-7.84279
0.32549
3.16
-0.898155
3.62969
-1.79604
6.97965
-8.35295
-2.93349
-20.1549
-7.30634
-9.34336
-9.44441
-2.77928
3.23389
-5.55885
-3.37631
-12.1626
-26.9854
-43.8562
-63.2329
-72.4747
-3.28891
-3.64745
-8.64919
-8.55073
-34.6606
-24.564
-51.1111
-38.0518
-15.1261
-12.1734
-0.394396
7.47967
0.00534367
5.6524
-12.9129
-57.6744
-13.2439
-55.4272
-9.21135
-18.1746
-10.1404
-20.531
-89.7597
-94.9809
-92.0305
-98.024
-13.2294
-11.3994
-14.8323
-11.2608
-65.8188
-47.9721
-68.4434
-48.7751
-15.5392
-10.3274
-7.60649
-10.1577
-17.7054
-7.75921
-8.42323
-73.9057
-79.132
-43.347
-47.2568
-12.0197
-5.73248
-3.85192
3.52737
-56.4447
-37.7563
-33.4418
-20.0497
3.07228
3.50578
-9.23904
-1.64476
-5.29159
18.981
-7.3896
-0.344841
-2.2144
23.367
6.08155
15.0391
41.7289
54.0253
-4.98899
-1.58318
45.9241
53.4814
15.0393
20.5127
48.1967
43.602
2.93576
9.3455
45.7158
39.6231
45.2958