# vtk DataFile Version 3.0
Gravity inversion using rectangular prisms
ASCII
DATASET UNSTRUCTURED_GRID

POINTS	2416	double
0	0	0
0	0	200
0	0	400
0	0	600
0	0	800
0	0	1000
0	200	0
0	200	200
0	200	400
0	200	600
0	200	800
0	200	1000
0	400	0
0	400	200
0	400	400
0	400	600
0	400	800
0	400	1000
0	600	0
0	600	200
0	600	400
0	600	600
0	600	800
0	600	1000
0	800	0
0	800	200
0	800	400
0	800	600
0	800	800
0	800	1000
0	1000	0
0	1000	200
0	1000	400
0	1000	600
0	1000	800
0	1000	1000
0	1200	0
0	1200	200
0	1200	400
0	1200	600
0	1200	800
0	1200	1000
0	1400	0
0	1400	200
0	1400	400
0	1400	600
0	1400	800
0	1400	1000
0	1600	0
0	1600	200
0	1600	400
0	1600	600
0	1600	800
0	1600	1000
0	1800	0
0	1800	200
0	1800	400
0	1800	600
0	1800	800
0	1800	1000
0	2000	0
0	2000	200
0	2000	400
0	2000	600
0	2000	800
0	2000	1000
200	0	0
200	0	200
200	0	400
200	0	600
200	0	800
200	0	1000
200	200	0
200	200	200
200	200	400
200	200	600
200	200	800
200	200	1000
200	400	0
200	400	200
200	400	400
200	400	600
200	400	800
200	400	1000
200	600	0
200	600	200
200	600	400
200	600	600
200	600	800
200	600	1000
200	800	0
200	800	200
200	800	400
200	800	600
200	800	800
200	800	1000
200	1000	0
200	1000	200
200	1000	400
200	1000	600
200	1000	800
200	1000	1000
200	1200	0
200	1200	200
200	1200	400
200	1200	600
200	1200	800
200	1200	1000
200	1400	0
200	1400	200
200	1400	400
200	1400	600
200	1400	800
200	1400	1000
200	1600	0
200	1600	200
200	1600	400
200	1600	600
200	1600	800
200	1600	1000
200	1800	0
200	1800	200
200	1800	400
200	1800	600
200	1800	800
200	1800	1000
200	2000	0
200	2000	200
200	2000	400
200	2000	600
200	2000	800
200	2000	1000
400	0	0
400	0	200
400	0	400
400	0	600
400	0	800
400	0	1000
400	200	0
400	200	200
400	200	400
400	200	600
400	200	800
400	200	1000
400	400	0
400	400	200
400	400	400
400	400	600
400	400	800
400	400	1000
400	600	0
400	600	100
400	600	200
400	600	300
400	600	400
400	600	600
400	600	800
400	600	1000
400	700	0
400	700	100
400	700	200
400	700	300
400	700	400
400	800	0
400	800	100
400	800	200
400	800	300
400	800	400
400	800	600
400	800	800
400	800	1000
400	900	200
400	900	300
400	900	400
400	1000	0
400	1000	200
400	1000	300
400	1000	400
400	1000	600
400	1000	800
400	1000	1000
400	1200	0
400	1200	200
400	1200	400
400	1200	600
400	1200	800
400	1200	1000
400	1400	0
400	1400	200
400	1400	400
400	1400	600
400	1400	800
400	1400	1000
400	1600	0
400	1600	200
400	1600	400
400	1600	600
400	1600	800
400	1600	1000
400	1800	0
400	1800	200
400	1800	400
400	1800	600
400	1800	800
400	1800	1000
400	2000	0
400	2000	200
400	2000	400
400	2000	600
400	2000	800
400	2000	1000
500	600	0
500	600	100
500	600	200
500	600	300
500	600	400
500	700	0
500	700	100
500	700	200
500	700	300
500	700	400
500	800	0
500	800	100
500	800	200
500	800	300
500	800	400
500	900	200
500	900	300
500	900	400
500	1000	200
500	1000	300
500	1000	400
600	0	0
600	0	200
600	0	400
600	0	600
600	0	800
600	0	1000
600	200	0
600	200	200
600	200	400
600	200	600
600	200	800
600	200	1000
600	400	0
600	400	100
600	400	200
600	400	300
600	400	400
600	400	600
600	400	800
600	400	1000
600	500	0
600	500	100
600	500	200
600	500	300
600	500	400
600	600	0
600	600	100
600	600	150
600	600	200
600	600	300
600	600	400
600	600	500
600	600	600
600	600	800
600	600	1000
600	650	100
600	650	150
600	650	200
600	700	0
600	700	100
600	700	150
600	700	200
600	700	300
600	700	400
600	700	500
600	700	600
600	750	100
600	750	150
600	750	200
600	800	0
600	800	100
600	800	150
600	800	200
600	800	250
600	800	300
600	800	400
600	800	500
600	800	600
600	800	800
600	800	1000
600	850	200
600	850	250
600	850	300
600	900	0
600	900	100
600	900	200
600	900	250
600	900	300
600	900	400
600	1000	0
600	1000	100
600	1000	200
600	1000	300
600	1000	400
600	1000	600
600	1000	800
600	1000	1000
600	1200	0
600	1200	200
600	1200	300
600	1200	400
600	1200	500
600	1200	600
600	1200	700
600	1200	800
600	1200	1000
600	1300	200
600	1300	300
600	1300	400
600	1300	500
600	1300	600
600	1300	700
600	1300	800
600	1400	0
600	1400	200
600	1400	300
600	1400	400
600	1400	500
600	1400	600
600	1400	700
600	1400	800
600	1400	1000
600	1500	200
600	1500	300
600	1500	400
600	1600	0
600	1600	200
600	1600	300
600	1600	400
600	1600	600
600	1600	800
600	1600	1000
600	1800	0
600	1800	200
600	1800	400
600	1800	600
600	1800	800
600	1800	1000
600	2000	0
600	2000	200
600	2000	400
600	2000	600
600	2000	800
600	2000	1000
650	600	100
650	600	150
650	600	200
650	650	100
650	650	150
650	650	200
650	700	100
650	700	150
650	700	200
650	750	100
650	750	150
650	750	200
650	800	100
650	800	150
650	800	200
650	800	250
650	800	300
650	850	200
650	850	250
650	850	300
650	900	200
650	900	250
650	900	300
700	400	0
700	400	100
700	400	200
700	400	300
700	400	400
700	500	0
700	500	100
700	500	200
700	500	300
700	500	400
700	600	0
700	600	50
700	600	100
700	600	150
700	600	200
700	600	300
700	600	400
700	600	500
700	600	600
700	650	0
700	650	50
700	650	100
700	650	150
700	650	200
700	700	0
700	700	50
700	700	100
700	700	150
700	700	200
700	700	300
700	700	400
700	700	500
700	700	600
700	750	100
700	750	150
700	750	200
700	800	0
700	800	100
700	800	150
700	800	200
700	800	250
700	800	300
700	800	400
700	800	500
700	800	600
700	850	200
700	850	250
700	850	300
700	900	0
700	900	100
700	900	200
700	900	250
700	900	300
700	900	400
700	1000	0
700	1000	100
700	1000	200
700	1000	300
700	1000	400
700	1200	200
700	1200	300
700	1200	400
700	1200	500
700	1200	600
700	1200	700
700	1200	800
700	1300	200
700	1300	300
700	1300	400
700	1300	500
700	1300	600
700	1300	700
700	1300	800
700	1400	200
700	1400	300
700	1400	400
700	1400	500
700	1400	600
700	1400	700
700	1400	800
700	1500	200
700	1500	300
700	1500	400
700	1600	200
700	1600	300
700	1600	400
750	600	0
750	600	50
750	600	100
750	600	150
750	600	200
750	650	0
750	650	50
750	650	100
750	650	150
750	650	200
750	700	0
750	700	50
750	700	100
750	700	150
750	700	200
750	750	100
750	750	150
750	750	200
750	800	100
750	800	150
750	800	200
750	800	250
750	800	300
750	850	200
750	850	250
750	850	300
750	900	200
750	900	250
750	900	300
800	0	0
800	0	200
800	0	400
800	0	600
800	0	800
800	0	1000
800	200	0
800	200	200
800	200	400
800	200	600
800	200	800
800	200	1000
800	400	0
800	400	100
800	400	200
800	400	300
800	400	400
800	400	600
800	400	800
800	400	1000
800	500	0
800	500	100
800	500	200
800	500	300
800	500	400
800	600	0
800	600	50
800	600	100
800	600	150
800	600	200
800	600	250
800	600	300
800	600	400
800	600	500
800	600	600
800	600	800
800	600	1000
800	650	0
800	650	50
800	650	100
800	650	150
800	650	200
800	650	250
800	650	300
800	700	0
800	700	50
800	700	100
800	700	150
800	700	200
800	700	250
800	700	300
800	700	400
800	700	500
800	700	600
800	750	100
800	750	150
800	750	200
800	750	250
800	750	300
800	800	0
800	800	100
800	800	150
800	800	200
800	800	250
800	800	300
800	800	400
800	800	500
800	800	600
800	800	800
800	800	1000
800	850	200
800	850	250
800	850	300
800	900	0
800	900	100
800	900	200
800	900	250
800	900	300
800	900	400
800	1000	0
800	1000	100
800	1000	200
800	1000	300
800	1000	400
800	1000	600
800	1000	800
800	1000	1000
800	1100	200
800	1100	300
800	1100	400
800	1200	0
800	1200	100
800	1200	200
800	1200	250
800	1200	300
800	1200	350
800	1200	400
800	1200	500
800	1200	600
800	1200	700
800	1200	800
800	1200	1000
800	1250	200
800	1250	250
800	1250	300
800	1250	350
800	1250	400
800	1300	0
800	1300	100
800	1300	200
800	1300	250
800	1300	300
800	1300	350
800	1300	400
800	1300	500
800	1300	600
800	1300	700
800	1300	800
800	1350	200
800	1350	250
800	1350	300
800	1400	0
800	1400	100
800	1400	200
800	1400	250
800	1400	300
800	1400	400
800	1400	500
800	1400	600
800	1400	700
800	1400	800
800	1400	1000
800	1500	0
800	1500	100
800	1500	200
800	1500	250
800	1500	300
800	1500	400
800	1500	500
800	1500	600
800	1500	700
800	1500	800
800	1550	200
800	1550	250
800	1550	300
800	1600	0
800	1600	100
800	1600	200
800	1600	250
800	1600	300
800	1600	400
800	1600	500
800	1600	600
800	1600	700
800	1600	800
800	1600	1000
800	1700	200
800	1700	300
800	1700	400
800	1800	0
800	1800	200
800	1800	300
800	1800	400
800	1800	600
800	1800	800
800	1800	1000
800	2000	0
800	2000	200
800	2000	400
800	2000	600
800	2000	800
800	2000	1000
850	600	200
850	600	250
850	600	300
850	650	200
850	650	250
850	650	300
850	700	200
850	700	250
850	700	300
850	750	200
850	750	250
850	750	300
850	800	200
850	800	250
850	800	300
850	1200	200
850	1200	250
850	1200	300
850	1200	350
850	1200	400
850	1250	200
850	1250	250
850	1250	300
850	1250	350
850	1250	400
850	1300	200
850	1300	250
850	1300	300
850	1300	350
850	1300	400
850	1350	200
850	1350	250
850	1350	300
850	1400	200
850	1400	250
850	1400	300
850	1500	200
850	1500	250
850	1500	300
850	1550	200
850	1550	250
850	1550	300
850	1600	200
850	1600	250
850	1600	300
900	400	200
900	400	300
900	400	400
900	500	200
900	500	300
900	500	400
900	600	0
900	600	100
900	600	200
900	600	250
900	600	300
900	600	350
900	600	400
900	600	500
900	600	600
900	650	200
900	650	250
900	650	300
900	650	350
900	650	400
900	700	0
900	700	100
900	700	200
900	700	250
900	700	300
900	700	350
900	700	400
900	700	500
900	700	600
900	750	200
900	750	250
900	750	300
900	800	0
900	800	100
900	800	200
900	800	250
900	800	300
900	800	400
900	800	500
900	800	600
900	900	200
900	900	300
900	900	400
900	1000	200
900	1000	300
900	1000	400
900	1100	200
900	1100	300
900	1100	400
900	1200	0
900	1200	100
900	1200	200
900	1200	250
900	1200	300
900	1200	350
900	1200	400
900	1200	500
900	1200	600
900	1200	700
900	1200	800
900	1250	200
900	1250	250
900	1250	300
900	1250	350
900	1250	400
900	1300	0
900	1300	100
900	1300	200
900	1300	250
900	1300	300
900	1300	350
900	1300	400
900	1300	500
900	1300	600
900	1300	700
900	1300	800
900	1350	200
900	1350	250
900	1350	300
900	1400	0
900	1400	100
900	1400	200
900	1400	250
900	1400	300
900	1400	400
900	1400	500
900	1400	600
900	1400	700
900	1400	800
900	1500	0
900	1500	100
900	1500	200
900	1500	250
900	1500	300
900	1500	400
900	1500	500
900	1500	600
900	1500	700
900	1500	800
900	1550	200
900	1550	250
900	1550	300
900	1600	0
900	1600	100
900	1600	200
900	1600	250
[...]
CELL_DATA	1508
SCALARS model double 1
LOOKUP_TABLE table0
0.0189444
3.16508
-13.685
-11.3153
-8.3213
0.262787
0.881935
-12.0521
-8.6794
-5.98975
-0.019695
1.6429
-11.3186
-6.23525
-3.4078
0.138801
-0.660762
-12.788
-6.07753
-1.66603
0.574578
-7.96386
-19.1491
-9.47348
-2.11287
-0.724048
-1.39734
-16.0599
-10.4013
-3.72415
-0.51754
-0.220364
-9.06556
-7.60977
-4.89868
0.451223
-10.3305
-7.86013
-6.14997
-7.65808
-0.247537
8.29098
0.614145
-8.61384
-16.7743
0.193637
-1.03525
-9.85715
-17.6764
-24.6479
-0.379769
3.57175
-4.32293
-2.86311
-2.6042
-0.302049
-0.629312
-0.750498
0.843941
0.154888
0.389181
-13.9566
3.85008
6.29573
4.00498
0.0520323
-1.45435
9.52532
11.9179
8.60145
1.0481
-6.82374
2.0651
12.1883
12.4148
-0.606686
1.44224
-3.67729
9.10819
14.3
-1.72663
3.74426
-4.51812
6.16439
13.5019
-0.701017
0.138816
-7.72021
-0.190093
6.27149
-0.0341876
-4.88098
-9.26435
-9.33351
-9.1695
0.0532841
-0.920744
-13.3339
-16.8266
-17.9819
-0.536354
-4.16015
-0.204558
-0.125554
-0.765245
-1.67428
-1.22529
6.36719
3.838
1.66371
-3.96329
31.8933
26.4925
11.4044
5.49748
-5.48601
7.1779
6.99478
-5.4475
-6.07156
112.636
9.5973
-58.0697
-12.6923
31.1055
-25.6151
24.5414
145.162
87.3299
115.626
91.6746
57.3451
22.8576
11.199
5.91661
-25.9074
4.19352
-103.209
-12.0401
-2.33843
7.15465
-29.339
-2.18507
46.6062
31.1318
18.5554
1.44465
-36.4689
11.9263
31.1834
27.3209
-1.2724
-12.2831
-7.22241
17.7963
33.3407
-1.42036
-6.44168
-11.0411
3.79549
26.1193
-1.33696
3.98381
-13.0258
-6.38184
7.39701
-0.863848
4.31987
-14.2406
-13.636
-3.5917
-0.753757
0.608424
0.643669
0.0769387
-0.678046
-2.79407
12.325
6.02121
2.72774
0.65706
-9.08646
41.5543
-7.79053
74.731
-6.08279
52.9597
3.45138
68.087
69.0595
71.9425
137.623
96.7317
88.2341
78.9048
146.115
101.633
23.5006
8.0161
2.77775
-4.22013
86.5498
374.167
51.4063
266.786
75.4733
348.467
72.0338
333.625
-4.07659
7.91899
145.03
-59.7291
6.73915
80.2846
293.113
83.2518
245.774
-23.6083
-55.6161
-7.06553
-33.552
-0.59267
20.3495
-10.5672
-21.0267
70.9857
374.57
78.7455
374.816
231.799
434.383
122.992
407.111
-11.9784
99.0101
371.205
141.109
390.577
87.3112
397.968
82.4258
431.982
276.708
200.067
282.982
210.383
295.37
211.959
326.625
229.373
79.2337
64.3359
88.6419
68.9514
82.2373
66.9921
93.1278
72.1618
17.978
6.67698
6.95509
21.777
-2.70253
-10.1481
-12.2347
142.788
-12.17
27.7507
86.0646
152.321
14.1085
90.5165
229.986
232.568
156.935
183.068
126.596
-21.1838
46.4259
327.752
295.473
280.878
263.131
383.233
315.467
357.797
290.129
151.613
56.9764
91.0385
83.514
31.3245
14.348
-2.84094
-5.5337
40.4425
41.3035
29.3004
-2.14205
-32.6379
-25.4422
-15.0303
-20.0944
-48.641
-26.7964
-20.0473
-21.6798
-6.47591
-6.67256
-3.19193
-4.73263
-7.7535
-7.60252
-4.6936
-5.83718
-6.78109
-6.73668
-5.72287
-6.22443
-7.36169
-7.04653
-6.44259
-6.6509
38.6252
-3.07907
-28.5522
-23.7788
-22.3987
-13.9658
-17.3816
-23.7053
-24.7691
-13.0867
-3.17383
-4.78108
39.1009
-2.79052
-1.45733
-8.11906
-2.06232
30.6803
-0.491258
-13.149
-24.5711
-10.5342
15.7305
-0.781906
0.883971
0.316608
-0.33131
-1.10603
-0.964915
6.95722
2.34533
0.2058
-1.26276
2.21334
44.8199
35.1384
104.822
56.1988
37.7857
31.858
97.9341
47.873
6.83438
0.403808
-1.97661
2.90638
54.1576
-11.4388
84.9442
-1.22652
11.2328
-17.6725
48.3903
325.004
292.67
340.827
309.539
291.912
275.256
319.116
292.735
173.414
370.056
335.593
396.528
350.627
357.01
320.103
377.368
332.812
191.844
255.571
259.855
287.075
274.208
208.964
234.753
239.882
245.94
160.542
151.769
167.554
155.459
148.561
146.095
153.261
147.841
310.572
277.07
324.966
286.848
265.796
246.408
285.285
256.365
168.866
39.5157
25.5117
50.33
30.5658
31.9002
22.3587
39.7264
25.9091
1.82771
-2.2257
-13.278
198.239
141.119
64.9413
97.4389
148.226
117.477
65.8701
94.6546
40.9568
9.96933
2.44759
-9.38626
-58.8218
0.772786
-114.707
-18.2632
-13.9753
21.8859
11.1564
27.0689
10.5625
10.8314
18.9817
-7.5279
-45.0951
3.83858
1.8647
-2.69926
71.3478
8.60239
8.4621
-88.4305
-73.4891
-59.8503
-12.6648
40.5772
-0.141216
75.3075
63.8714
15.2761
59.2686
38.8935
82.6752
63.5313
83.8364
87.1467
107.795
-67.6699
9.61867
12.4579
85.7319
128.046
128.045
128.04
128.037
128.027
136.133
119.289
127.93
127.931
205.002
156.832
127.938
127.941
127.924
189.519
284.106
207.027
303.165
286.793
351.317
295.568
374.135
138.389
123.109
123.346
128.032
128.018
127.905
127.914
134.363
124.28
141.346
141.878
141.885
141.965
141.146
141.835
141.573
141.831
47.0829
0.592776
34.6986
-3.83339
-14.3041
24.6998
8.46936
-3.31307
8.47937
128.014
128.009
127.995
128.019
-114.943
-13.101
128.007
128.028
71.4462
89.1745
127.994
134.368
134.36
98.1895
147.461
128.04
128.052
128.052
40.1168
134.349
52.7004
52.7004
60.8817
-5.44949
-6.39883
-4.41103
-6.01851
-6.49239
-6.87051
-5.50256
-6.58475
58.0307
-4.61541
-36.6422
-34.5845
92.6971
2.87997
-22.6201
-46.4209
1.07138
-40.9408
-11.6931
14.2974
59.6454
0.659996
-21.5671
-40.7344
1.07444
40.3104
-0.114364
0.28701
-0.0716181
-0.754197
-1.59137
-0.147052
-0.433116
-1.32225
-2.36264
-3.29258
-0.739547
-21.4582
-23.2455
-25.5461
-23.9057
-23.7711
-22.2686
-31.5498
-24.3438
-10.5407
-7.94781
-7.13271
-2.52736
-26.4001
-13.4178
12.0049
0.163784
-43.3253
-11.2525
-2.52785
-24.4596
3.52272
13.2318
14.6557
-74.3052
-22.3621
-29.3205
-11.3946
-45.8951
33.4354
-2.8869
63.2752
11.7477
-6.33959
-29.3111
21.7757
-14.7084
-42.2511
-125.039
-86.93
-138.365
-87.456
-32.639
-18.0324
-12.3746
-14.9368
-10.0581
-14.7722
-6.70011
-5.17622
-49.3865
-35.1866
7.52304
-8.67893
-30.8772
-18.0271
-12.0707
-13.6212
22.4428
30.522
40.2453
40.3602
40.8449
32.0188
29.9915
32.2799
10.7382
8.16466
6.81486
-15.2921
26.3054
37.0914
8.37904
8.54278
8.38338
8.54528
12.6267
8.54064
45.0751
8.54476
0.0613753
76.7119
22.737
45.4896
8.53083
74.1579
8.53028
109.187
8.5046
121.657
8.51199
204.345
148.701
127.95
127.948
176.971
126.635
127.952
127.949
127.915
297.835
362.08
293.556
378.769
301.285
348.91
286.757
362.063
136.361
127.938
127.906
291.772
309.176
279.34
326.035
281.623
292.301
277.445
311.125
251.458
229.429
263.791
240.863
251.964
234.645
267.555
248.019
127.893
127.884
134.38
48.3867
127.877
127.864
134.418
123.162
80.9386
70.5433
81.6106
71.9425
73.749
64.8742
76.3213
65.1953
45.4555
23.6863
8.53161
0.977132
8.53501
39.4927
8.51546
8.43651
8.51815
134.385
134.392
139.299
201.536
172.438
172.234
66.2499
185.858
108.708
159.818
222.469
230.348
205.177
220.276
238.435
247.009
223.31
238.77
134.417
134.421
56.2085
191.083
127.053
178.843
156.155
239.875
236.876
240.105
252.276
265.379
251.795
271.305
269.806
271.66
273.089
277.85
134.367
105.04
105.039
121.844
134.404
105.064
105.064
128.583
27.8817
68.3739
-3.56145
62.1332
133.703
129.606
42.008
67.7127
169.55
155.948
105.148
105.137
-4.57215
-36.6523
72.8963
130.443
-101.529
-43.7259
31.1205
27.3641
28.0539
26.3946
28.2293
26.1997
25.2905
26.104
43.6722
78.9663
2.13901
-43.8483
-29.0611
18.8071
60.6495
0.133906
0.0147539
-0.248361
-1.03607
-1.96101
-0.260986
-5.47796
-4.17915
-4.5463
-5.04926
2.06752
-27.207
2.57584
-52.7815
-5.75782
-26.2832
-4.33636
-47.4977
-87.3904
-67.0448
-133.147
-86.2616
-69.8745
-60.4078
-119.304
-82.1076
-23.578
-14.8194
-11.4526
-3.05898
173.439
-22.1701
127.177
28.0867
90.4929
0.796359
63.6793
-395.061
-483.779
-164.204
-385.934
-322.382
-455.883
-246.742
-408.711
-6.3796
115.471
-6.86947
23.4296
-8.40401
33.2757
-18.6951
49.8718
-133.645
-285.034
-204.613
-269.277
-198.963
-317.05
-200.996
-279.397
26.2167
54.2982
21.4193
34.7045
2.2931
61.3423
-12.3848
8.26198
-293.071
-428.737
-276.835
-411.298
-370.705
-465.316
-365.455
-458.962
24.8391
-258.449
-346.282
-258.079
-305.113
-377.232
-420.617
-432.62
-396.334
-286.565
-216.937
-262.988
-214.371
-282.491
-217.645
-268.419
-219.377
-91.7616
-79.3593
-94.3544
-82.0418
-91.4112
-78.3651
-96.0775
-82.4364
-32.9384
-20.2584
-13.4372
-14.0725
-14.8454
-17.5205
-24.6121
-20.9275
-10.1589
-15.2464
-87.4162
-94.7684
-50.966
-68.7917
-113.021
-107.185
-81.4628
-87.0106
-68.3883
-36.9535
-22.6538
-7.9943
24.2602
18.6533
9.25123
13.9703
-2.21293
-0.974105
-18.9659
-8.00401
10.501
4.08357
12.0015
7.69825
-1.37697
-2.69642
-2.92403
-2.03726
6.99022
-5.3415
3.00808
35.1498
34.3789
8.44091
14.5122
22.3768
37.5077
8.38989
127.935
127.904
263.421
257.194
275.722
281.674
261.506
252.432
275.469
274.959
241.507
127.935
127.912
252.793
243.592
262.437
262.275
231.863
234.841
232.524
248.425
212.947
127.876
127.86
134.444
112.957
127.899
127.889
134.472
124.909
-2.04724
-12.0585
1.45015
-11.8742
124.308
-16.2277
124.389
-16.8419
19.8815
41.2021
8.4491
-0.225154
8.4456
38.2068
8.37873
-2.49809
8.37639
134.445
134.441
206.931
265.586
284.046
283.066
240.124
282.672
275.345
294.406
276.102
264.629
281.957
270.832
278.648
265.934
283.006
271.197
134.479
134.48
205.065
268.348
199.869
273.249
148.927
239.941
121.533
236.274
251.984
134.439
105.975
105.975
111.924
134.473
130.31
130.31
128.351
1.3168
-15.8417
5.57567
-15.5779
125.911
-20.3355
126.541
-19.2534
40.382
-4.22898
68.7872
114.593
-149.591
-45.0552
44.6609
106.311
-84.4767
-40.9898
66.5454
29.9849
-4.94294
-5.59816
127.639
127.413
-3.67832
-5.8063
33.5101
64.203
1.81003
-10.8267
-30.2893
15.3066
55.5615
-0.156566
3.1209
0.481729
-0.913952
-1.96134
-0.534963
-4.1121
-5.48826
-5.8847
-6.05814
-5.97282
-49.9273
-50.0651
-61.3202
-53.4506
-31.2068
-44.497
-52.5828
-48.7512
-28.0486
-17.9175
-13.5445
1.45966
-93.2094
-6.13281
-87.5064
1.21631
-102.049
2.9688
-70.4857
-223.704
-168.453
-228.937
-173.761
-153.385
-137.538
-149.19
-137.617
-64.8727
-34.0795
-22.2558
-5.6469
-137.015
-105.677
-98.7882
-91.9274
-77.4117
-77.9359
-41.6937
-72.7693
-54.8746
-34.3612
-23.7316
-1.79426
-25.5703
-12.2024
-52.8216
-25.0787
20.2181
0.797226
-44.9869
-22.2377
2.88499
2.9364
1.793
2.00127
4.36751
3.69771
3.03412
2.60894
4.08229
-11.3183
6.85157
11.3098
25.3179
8.35503
5.05399
8.7165
7.43407
8.34609
127.95
127.946
134.51
134.509
127.923
127.948
127.96
127.974
85.8417
102.892
92.9294
108.83
127.953
30.8298
127.551
127.939
127.951
134.489
128.896
127.951
126.505
128.896
126.727
-2.20673
-2.29995
-2.27494
-2.59266
-2.0978
-2.41387
-2.07759
-2.59853
6.65883
19.9639
8.36431
6.50789
8.37558
17.8226
8.37537
-9.97452
16.8904
134.485
134.493
106.352
130.296
106.352
130.296
62.8297
54.4639
46.0577
34.3736
-34.8776
6.72467
-35.1066
-12.2971
132.099
134.485
130.473
130.473
128.8
130.473
129.007
131.341
129.818
-3.62836
-4.25901
-3.05074
-4.05821
-3.28694
-4.11006
-2.55691
-3.75317
23.5178
-12.065
49.1839
2.82073
-14.8074
-10.4277
65.6733
1.6236
-19.8431
81.331
82.277
7.90376
24.7323
78.2769
47.7174
21.6291
-0.12875
111.395
130.322
72.5734
107.175
115.82
138.635
79.9991
118.412
-96.2185
-53.7402
71.4021
11.8098
19.1526
-26.2332
11.5258
-23.6654
-46.0701
-55.5758
108.051
145.312
76.7748
128.5
106.807
148.612
80.3155
135.164
-127.531
-57.2799
0.812302
-1.20975
-1.52023
-1.77645
2.21762
-0.243049
0.0864169
-0.987758
22.2478
37.8025
3.30372
-27.7888
-35.7656
7.2516
33.4904
-0.150087
2.00186
2.06625
0.345427
-0.863361
0.209207
4.32405
-3.71646
-4.90821
-5.20265
0.649256
-10.0772
-16.9248
-13.8476
-11.5187
2.45309
-22.5449
-22.8345
-19.9808
-16.5223
0.235616
-4.71339
-13.4871
-16.842
-15.7209
-0.901405
4.43365
6.11883
3.75887
5.0586
6.96365
4.35109
8.23106
4.28616
3.96098
-9.40892
-9.6023
-0.324888
6.58855
3.88927
3.75895
-0.790111
15.3644
1.14663
27.5062
-116.933
-110.45
-102.356
-103.297
-97.6297
-102.144
-89.8745
-96.8605
117.978
119.245
121.787
122.844
124.449
120.696
128.692
125.209
-122.202
-123.665
-114.913
-111.927
-107.989
-116.322
-94.9505
-102.642
124.193
126.946
127.35
132.616
132.703
130.75
138.533
138.404
-53.2719
-33.5285
-83.647
-47.7533
-0.878652
-1.90217
0.165093
-1.24569
-1.68336
-2.8796
0.330059
-1.53061
-1.98356
-0.570529
5.02002
-29.3102
5.91293
-47.1853
1.16239
34.9332
3.92336
-7.13633
-85.4451
-58.3023
-105.487
-52.2004
-60.6638
-47.3027
-90.6653
-43.9303
133.685
140.995
134.972
148.279
147.804
149.21
151.255
158.559
-125.05
-68.3086
-85.6571
-46.9245
-127.742
-60.3244
-104.892
-44.2288
133.441
155.76
129.978
158.97
151.153
167.885
148.898
173.053
-55.7164
-44.1172
-54.7867
-27.4902
0.468221
-1.53258
2.99252
0.184358
1.9352
-0.966501
5.63449
1.56178
4.0951
8.85313
-0.530699
-21.0923
-12.85
-14.174
-11.1276
3.53553
-5.43047
47.8216
2.48935
-22.5091
0.851922
13.9489
1.2214
-2.03266
-34.2351
-9.18305
9.68756
-0.122202
0.21511
7.96645
4.98844
2.63355
0.219648
0.293731
3.70902
0.633819
-1.18468
0.585345
5.91489
0.971501
-3.81938
-5.3309
0.324891
9.35226
0.631799
-5.24925
-7.44778
0.228038
1.30154
-0.202658
-4.25973
-6.60803
-0.0738251
-1.28311
-1.8432
-3.21089
-3.97267
0.776603
-9.12455
-4.43446
-1.63527
0.0375555
0.0987489
-8.87239
-7.87004
1.1962
5.16693
-1.31059
11.4739
-10.7596
0.565599
8.3892
0.396945
-11.1962
-33.8589
-10.4974
3.21996
SCALARS m0 double 1
LOOKUP_TABLE table1
0
0
0
0
0
0
0
0
0
0
0
0
0
0
0
0
0
0
0
0
0
0
0
0
0
0
0
0
0
0
0
0
0
0
0
0
0
0
0
0
0
0
0
0
0
0
0
0
0
0
0
0
0
0
0
0
0
0
0
0
0
0
0
0
0
0
0
0
0
0
0
0
0
0
0
0
0
0
0
0
0
0
0
0
0
0
0
0
0
0
0
0
0
0
0
0
0
0
0
0
0
0
0
0
0
0
0
0
0
0
0
0
0
0
0
0
0
0
0
0
0
0
0
0
0
0
0
0
0
0
0
0
0
0
0
0
0
0
0
0
0
0
0
0
0
0
0
0
0
0
0
0
0
0
0
0
0
0
0
0
0
0
0
0
0
0
0
0
0
0
0
0
0
0
0
0
0
0
0
0
0
0
0
0
0
0
0
0
0
0
0
0
0
0
0
0
0
0
0
0
0
0
0
0
0
0
0
0
0
0
0
0
0
0
0
0
0
0
0
0
0
0
0
0
0
0
0
0
0
0
0
0
0
0
0
0
0
0
0
0
0
0
0
0
0
0
0
0
0
0
0
0
0
0
0
0
0
0
0
0
0
0
0
0
0
0
0
0
0
0
0
0
0
0
0
0
0
0
0
0
0
0
0
0
0
0
0
0
0
0
0
0
0
0
0
0
0
0
0
0
0
0
0
0
0
0
0
0
0
0
0
0
0
0
0
0
0
0
0
0
0
0
0
0
0
0
0
0
0
0
0
0
0
0
0
0
0
0
0
0
0
0
0
0
0
0
0
0
0
0
0
0
0
0
0
0
0
0
0
0
0
0
0
0
0
0
0
0
0
0
0
0
0
0
0
0
0
0
0
0
0
0
0
0
0
0
0
0
0
0
0
0
0
0
0
0
0
0
0
0
0
0
0
0
0
0
0
0
0
0
0
0
0
0
0
0
0
0
0
0
0
0
0
0
0
0
0
0
0
0
0
0
0
0
0
0
0
0
0
0
0
0
0
0
0
0
0
0
0
0
0
0
0
0
0
0
0
0
0
0
0
0
0
0
0
0
0
0
0
0
0
0
0
0
0
0
0
0
0
0
0
0
0
0
0
0
0
0
0
0
0
0
0
0
0
0
0
0
0
0
0
0
0
0
0
0
0
0
0
0
0
0
0
0
0
0
0
0
0
0
0
0
0
0
0
0
0
0
0
0
0
0
0
0
0
0
0
0
0
0
0
0
0
0
0
0
0
0
0
0
0
0
0
0
0
0
0
0
0
0
0
0
0
0
0
0
0
0
0
0
0
0
0
0
0
0
0
0
0
0
0
0
0
0
0
0
0
0
0
0
0
0
0
0
0
0
0
0
0
0
0
0
0
0
0
0
0
0
0
0
0
0
0
0
0
0
0
0
0
0
0
0
0
0
0
0
0
0
0
0
0
0
0
0
0
0
0
0
0
0
0
0
0
0
0
0
0
0
0
0
0
0
0
0
0
0
0
0
0
0
0
0
0
0
0
0
0
0
0
0
0
0
0
0
0
0
0
0
0
0
0
0
0
0
0
0
0
0
0
0
0
0
0
0
0
0
0
0
0
0
0
0
0
0
0
0
0
0
0
0
0
0
0
0
0
0
0
0
0
0
0
0
0
0
0
0
0
0
0
0
0
0
0
0
0
0
0
0
0
0
0
0
0
0
0
0
0
0
0
0
0
0
0
0
0
0
0
0
0
0
0
0
0
0
0
0
0
0
0
0
0
0
0
0
0
0
0
0
0
0
0
0
0
0
0
0
0
0
0
0
0
0
0
0
0
0
0
0
0
0
0
0
0
0
0
0
0
0
0
0
0
0
0
0
0
0
0
0
0
0
0
0
0
0
0
0
0
0
0
0
0
0
0
0
0
0
0
0
0
0
0
0
0
0
0
0
0
0
0
0
0
0
0
0
0
0
0
0
0
0
0
0
0
0
0
0
0
0
0
0
0
0
0
0
0
0
0
0
0
0
0
0
0
0
0
0
0
0
0
0
0
0
0
0
0
0
0
0
0
0
0
0
0
0
0
0
0
0
0
0
0
0
0
0
0
0
0
0
0
0
0
0
0
0
0
0
0
0
0
0
0
0
0
0
0
0
0
0
0
0
0
0
0
0
0
0
0
0
0
0
0
0
0
0
0
0
0
0
0
0
0
0
0
0
0
0
0
0
0
0
0
0
0
0
0
0
0
0
0
0
0
0
0
0
0
0
0
0
0
0
0
0
0
0
0
0
0
0
0
0
0
0
0
0
0
0
0
0
0
0
0
0
0
0
0
0
0
0
0
0
0
0
0
0
0
0
0
0
0
0
0
0
0
0
0
0
0
0
0
0
0
0
0
0
0
0
0
0
0
0
0
0
0
0
0
0
0
0
0
0
0
0
0
0
0
0
0
0
0
0
0
0
0
0
0
0
0
0
0
0
0
0
0
0
0
0
0
0
0
0
0
0
0
0
0
0
0
0
0
0
0
0
0
0
0
0
0
0
0
0
0
0
0
0
0
0
0
0
0
0
0
0
0
0
0
0
0
0
0
0
0
0
0
0
0
0
0
0
0
0
0
0
0
0
0
0
0
0
0
0
0
0
0
0
0
0
0
0
0
0
0
0
0
0
0
0
0
0
0
0
0
0
0
0
0
0
0
0
0
0
0
0
0
0
0
0
0
0
0
0
0
0
0
0
0
0
0
0
0
0
0
0
0
0
0
0
0
0
0
0
0
0
0
0
0
0
0
0
0
0
0
0
0
0
0
0
0
0
0
0
0
0
0
0
0
0
0
0
0
0
0
0
0
0
0
0
0
0
0
0
0
0
0
0
0
0
0
0
0
0
0
0
0
0
0
0
0
0
0
0
0
0
0
0
0
0
0
0
0
0
0
0
0
0
0
0
0
0
0
0
0
0
0
0
0
0
0
0
0
0
0
0
0
0
0
0
0
0
0
0
0
0
0
0
0
0
0
0
0
0
0
0
0
0
0
0
0
0
0
0
0
0
0
0
0
0
0
0
0
0
0
0
0
0
0
0
0
0
0
0
0
0
0
0
0
0
0
0
0
0
0
0
0
0
0
0
0
0
0
0
0
0
0
0
0
0
0
0
0
0
0
0
0
0
0
0
0
0
0
0
0
0
0
0
0
0
0
0
0
0
0
0
0
0
0
0
0
0
0
0
0
0
0
0
0
0
0
0
0
0
0
0
0
0
0
0
0
0
0
0
0
0
0
0
0
0
0
0
0
0
0
0
0
0
0
0
0
0
0
0
0
0
0
0
0
0
0
0
0
0
0
0
0
0
0
0
0
0
0
0
0
0
0
0
0
0
0
0
0
0
0
0
0
0
0
0
0
0
0
0
0
0
0
0
0
0
0
0
0
0
0
0
0
0
0
0
0
0
SCALARS m0s double 1
LOOKUP_TABLE table2
0
0
0
0
0
0
0
0
0
0
0
0
0
0
0
0
0
0
0
0
0
0
0
0
0
0
0
0
0
0
0
0
0
0
0
0
0
0
0
0
0
0
0
0
0
0
0
0
0
0
0
0
0
0
0
0
0
0
0
0
0
0
0
0
0
0
0
0
0
0
0
0
0
0
0
0
0
0
0
0
0
0
0
0
0
0
0
0
0
0
0
0
0
0
0
0
0
0
0
0
0
0
0
0
0
0
0
0
0
0
0
0
0
0
0
0
0
0
0
0
0
0
0
0
0
0
0
0
0
0
0
0
0
0
0
0
0
0
0
0
0
0
0
0
0
0
0
0
0
0
0
0
0
0
0
0
0
0
0
0
0
0
0
0
0
0
0
0
0
0
0
0
0
0
0
0
0
0
0
0
0
0
0
0
0
0
0
0
0
0
0
0
0
0
0
0
0
0
0
0
0
0
0
0
0
0
0
0
0
0
0
0
0
0
0
0
0
0
0
0
0
0
0
0
0
0
0
0
0
0
0
0
0
0
0
0
0
0
0
0
0
0
0
0
0
0
0
0
0
0
0
0
0
0
0
0
0
0
0
0
0
0
0
0
0
0
0
0
0
0
0
0
0
0
0
0
0
0
0
0
0
0
0
0
0
0
0
0
0
0
0
0
0
0
0
0
0
0
0
0
0
0
0
0
0
0
0
0
0
0
0
0
0
0
0
0
0
0
0
0
0
0
0
0
0
0
0
0
0
0
0
0
0
0
0
0
0
0
0
0
0
0
0
0
0
0
0
0
0
0
0
0
0
0
0
0
0
0
0
0
0
0
0
0
0
0
0
0
0
0
0
0
0
0
0
0
0
0
0
0
0
0
0
0
0
0
0
0
0
0
0
0
0
0
0
0
0
0
0
0
0
0
0
0
0
0
0
0
0
0
0
0
0
0
0
0
0
0
0
0
0
0
0
0
0
0
0
0
0
0
0
0
0
0
0
0
0
0
0
0
0
0
0
0
0
0
0
0
0
0
0
0
0
0
0
0
0
0
0
0
0
0
0
0
0
0
0
0
0
0
0
0
0
0
0
0
0
0
0
0
0
0
0
0
0
0
0
0
0
0
0
0
0
0
0
0
200
200
200
200
200
200
200
200
200
0
0
0
0
0
0
200
0
0
0
0
0
0
0
0
0
0
0
0
0
0
0
0
0
0
0
0
0
0
0
0
0
0
0
0
0
200
200
0
0
0
0
0
0
200
0
0
0
0
0
0
0
0
0
0
0
0
0
0
0
0
0
0
0
0
0
0
0
0
0
0
0
0
0
0
0
0
0
0
0
0
0
0
0
0
0
0
0
0
0
0
0
0
0
0
0
0
0
0
0
0
0
0
0
0
0
0
0
0
0
0
0
0
0
0
0
0
0
0
0
0
0
0
0
0
0
0
0
0
0
0
0
0
0
0
0
0
0
0
0
0
0
0
0
0
0
0
0
0
0
0
0
0
0
0
0
0
0
0
0
0
0
0
0
0
0
0
0
0
0
0
0
0
0
0
0
0
0
0
0
0
0
0
0
200
200
200
200
200
200
200
200
200
0
0
200
200
200
200
200
200
200
200
200
200
200
200
200
200
200
200
0
0
200
0
0
0
200
0
0
0
0
0
0
0
0
0
0
0
0
0
0
0
0
0
0
200
200
0
0
0
0
0
0
0
0
0
0
0
0
0
0
0
0
200
200
0
0
0
0
0
0
0
0
0
0
0
0
0
0
0
0
200
0
0
0
200
0
0
0
0
0
0
0
0
0
0
0
0
0
0
0
0
0
0
0
0
0
0
0
0
0
0
0
0
0
0
0
0
0
0
0
0
0
0
0
0
0
0
0
0
0
0
0
0
0
0
0
0
0
0
0
0
0
0
0
0
0
0
0
0
0
0
0
0
0
0
0
0
0
0
0
0
0
0
0
0
0
0
0
0
0
0
0
0
0
0
0
0
0
0
0
0
0
0
0
0
0
0
0
0
0
0
0
0
0
0
0
0
0
0
0
0
0
0
0
0
0
0
0
0
0
0
0
0
0
0
0
0
0
0
0
0
0
0
0
0
0
0
0
0
0
0
0
0
0
0
0
0
0
0
0
0
0
0
0
0
0
0
0
0
0
0
0
0
0
0
0
0
0
0
0
0
0
0
0
0
0
0
0
0
0
0
0
0
200
200
200
200
200
200
200
200
200
0
0
200
200
200
200
200
200
200
200
200
0
0
200
0
0
0
200
0
0
0
0
0
0
0
0
0
0
0
0
0
0
0
0
0
0
200
200
0
0
0
0
0
0
0
0
0
0
0
0
0
0
0
0
200
200
0
0
0
0
0
0
0
0
0
200
0
0
0
200
0
0
0
0
0
0
0
0
0
0
0
0
0
0
0
0
0
0
0
0
0
0
0
0
0
0
0
0
0
0
0
0
0
0
0
0
0
0
0
0
0
0
0
0
0
0
0
0
0
0
0
0
0
0
0
0
0
0
0
0
0
0
0
0
0
0
0
0
0
0
0
0
0
0
0
0
0
0
0
0
0
0
0
0
0
0
0
0
0
0
0
0
0
0
0
0
0
0
0
0
0
0
0
0
0
0
0
0
0
0
0
0
0
0
0
0
0
0
200
200
0
0
0
0
0
0
0
0
0
0
0
0
0
200
0
0
0
0
0
0
0
0
0
0
0
0
0
0
0
0
0
0
0
0
0
0
200
200
0
0
0
0
0
0
0
0
0
0
0
0
0
200
0
0
0
0
0
0
0
0
0
0
0
0
0
0
0
0
0
0
0
0
0
0
0
0
0
0
0
0
0
0
0
0
0
0
0
0
0
0
0
0
0
0
0
0
0
0
0
0
0
0
0
0
0
0
0
0
0
0
0
0
0
0
0
0
0
0
0
0
0
0
0
0
0
0
0
0
0
0
0
0
0
0
0
0
0
0
0
0
0
0
0
0
0
0
0
0
0
0
0
0
0
0
0
0
0
0
0
0
0
0
0
0
0
0
0
0
0
0
0
0
0
0
0
0
0
0
0
0
0
0
0
0
0
0
0
0
0
0
0
0
0
0
0
0
0
0
0
0
0
0
0
0
0
0
0
0
0
0
0
0
0
0
0
0
0
0
0
0
0
0
0
0
0
0
0
0
0
0
0
0
0
0
0
0
0
0
0
0
0
0
0
0
0
0
0
0
0
0
0
0
0
0
0
0
0
0
0
0
0
0
0
0
0
0
0
0
0
0
0
0
0
0
0
0
0
0
0
0
0
0
0
0
0
0
0
0
0
0
0
0
0
0
0
0
0
0
0
0
0
0
0
0
0
0
0
0
0
0
0
0
0
0
0
0
0
0
0
0
0
0
0
0
0
0
0
0
0
0
0
0
0
0
0
0
0
0
0

