# vtk DataFile Version 3.0
Gravity inversion using rectangular prisms
ASCII
DATASET UNSTRUCTURED_GRID

POINTS	3939	double
0	0	0
0	0	200
0	0	400
0	0	600
0	0	800
0	0	1000
0	200	0
0	200	200
0	200	400
0	200	600
0	200	800
0	200	1000
0	400	0
0	400	200
0	400	400
0	400	600
0	400	800
0	400	1000
0	600	0
0	600	200
0	600	400
0	600	600
0	600	800
0	600	1000
0	800	0
0	800	200
0	800	400
0	800	600
0	800	800
0	800	1000
0	1000	0
0	1000	200
0	1000	400
0	1000	600
0	1000	800
0	1000	1000
0	1200	0
0	1200	200
0	1200	400
0	1200	600
0	1200	800
0	1200	1000
0	1400	0
0	1400	200
0	1400	400
0	1400	600
0	1400	800
0	1400	1000
0	1600	0
0	1600	200
0	1600	400
0	1600	600
0	1600	800
0	1600	1000
0	1800	0
0	1800	200
0	1800	400
0	1800	600
0	1800	800
0	1800	1000
0	2000	0
0	2000	200
0	2000	400
0	2000	600
0	2000	800
0	2000	1000
200	0	0
200	0	200
200	0	400
200	0	600
200	0	800
200	0	1000
200	200	0
200	200	200
200	200	400
200	200	600
200	200	800
200	200	1000
200	400	0
200	400	200
200	400	400
200	400	600
200	400	800
200	400	1000
200	600	0
200	600	200
200	600	400
200	600	600
200	600	800
200	600	1000
200	800	0
200	800	200
200	800	300
200	800	400
200	800	600
200	800	800
200	800	1000
200	900	200
200	900	300
200	900	400
200	1000	0
200	1000	200
200	1000	300
200	1000	400
200	1000	600
200	1000	800
200	1000	1000
200	1200	0
200	1200	200
200	1200	400
200	1200	600
200	1200	800
200	1200	1000
200	1400	0
200	1400	200
200	1400	400
200	1400	600
200	1400	800
200	1400	1000
200	1600	0
200	1600	200
200	1600	400
200	1600	600
200	1600	800
200	1600	1000
200	1800	0
200	1800	200
200	1800	400
200	1800	600
200	1800	800
200	1800	1000
200	2000	0
200	2000	200
200	2000	400
200	2000	600
200	2000	800
200	2000	1000
300	800	200
300	800	300
300	800	400
300	900	200
300	900	300
300	900	400
300	1000	200
300	1000	300
300	1000	400
400	0	0
400	0	200
400	0	400
400	0	600
400	0	800
400	0	1000
400	200	0
400	200	200
400	200	400
400	200	600
400	200	800
400	200	1000
400	400	0
400	400	100
400	400	200
400	400	300
400	400	400
400	400	600
400	400	800
400	400	1000
400	500	0
400	500	100
400	500	200
400	500	300
400	500	400
400	600	0
400	600	100
400	600	200
400	600	300
400	600	400
400	600	500
400	600	600
400	600	800
400	600	1000
400	700	0
400	700	100
400	700	200
400	700	300
400	700	400
400	700	500
400	700	600
400	800	0
400	800	100
400	800	200
400	800	300
400	800	400
400	800	500
400	800	600
400	800	800
400	800	1000
400	900	0
400	900	100
400	900	200
400	900	250
400	900	300
400	900	400
400	900	500
400	900	600
400	950	200
400	950	250
400	950	300
400	1000	0
400	1000	100
400	1000	200
400	1000	250
400	1000	300
400	1000	400
400	1000	500
400	1000	600
400	1000	800
400	1000	1000
400	1100	200
400	1100	300
400	1100	400
400	1200	0
400	1200	200
400	1200	300
400	1200	400
400	1200	600
400	1200	800
400	1200	1000
400	1400	0
400	1400	200
400	1400	400
400	1400	600
400	1400	800
400	1400	1000
400	1600	0
400	1600	200
400	1600	400
400	1600	600
400	1600	800
400	1600	1000
400	1800	0
400	1800	200
400	1800	400
400	1800	600
400	1800	800
400	1800	1000
400	2000	0
400	2000	200
400	2000	400
400	2000	600
400	2000	800
400	2000	1000
450	900	200
450	900	250
450	900	300
450	950	200
450	950	250
450	950	300
450	1000	200
450	1000	250
450	1000	300
500	400	0
500	400	100
500	400	200
500	400	300
500	400	400
500	500	0
500	500	100
500	500	200
500	500	250
500	500	300
500	500	400
500	550	200
500	550	250
500	550	300
500	600	0
500	600	100
500	600	150
500	600	200
500	600	250
500	600	300
500	600	350
500	600	400
500	600	500
500	600	600
500	650	100
500	650	150
500	650	200
500	650	250
500	650	300
500	650	350
500	650	400
500	700	0
500	700	100
500	700	150
500	700	200
500	700	250
500	700	300
500	700	350
500	700	400
500	700	500
500	700	600
500	750	100
500	750	150
500	750	200
500	750	250
500	750	300
500	750	350
500	750	400
500	800	0
500	800	100
500	800	150
500	800	200
500	800	250
500	800	300
500	800	350
500	800	400
500	800	500
500	800	600
500	900	0
500	900	100
500	900	200
500	900	250
500	900	300
500	900	400
500	900	500
500	900	600
500	950	200
500	950	250
500	950	300
500	1000	0
500	1000	100
500	1000	200
500	1000	250
500	1000	300
500	1000	400
500	1000	500
500	1000	600
500	1100	200
500	1100	300
500	1100	400
500	1200	200
500	1200	300
500	1200	400
550	500	200
550	500	250
550	500	300
550	550	200
550	550	250
550	550	300
550	600	100
550	600	150
550	600	200
550	600	250
550	600	300
550	600	350
550	600	400
550	650	100
550	650	150
550	650	200
550	650	250
550	650	300
550	650	350
550	650	400
550	700	100
550	700	150
550	700	200
550	700	250
550	700	300
550	700	350
550	700	400
550	750	100
550	750	150
550	750	200
550	750	250
550	750	300
550	750	350
550	750	400
550	800	100
550	800	150
550	800	200
550	800	250
550	800	300
550	800	350
550	800	400
600	0	0
600	0	200
600	0	400
600	0	600
600	0	800
600	0	1000
600	200	0
600	200	200
600	200	300
600	200	400
600	200	600
600	200	800
600	200	1000
600	300	200
600	300	300
600	300	400
600	400	0
600	400	100
600	400	200
600	400	300
600	400	400
600	400	500
600	400	600
600	400	800
600	400	1000
600	500	0
600	500	100
600	500	150
600	500	200
600	500	250
600	500	300
600	500	350
600	500	400
600	500	500
600	500	600
600	550	100
600	550	150
600	550	200
600	550	250
600	550	300
600	550	350
600	550	400
600	600	0
600	600	100
600	600	150
600	600	200
600	600	250
600	600	300
600	600	350
600	600	400
600	600	450
600	600	500
600	600	600
600	600	800
600	600	1000
600	650	100
600	650	150
600	650	200
600	650	250
600	650	300
600	650	350
600	650	400
600	650	450
600	650	500
600	700	0
600	700	100
600	700	150
600	700	200
600	700	250
600	700	300
600	700	350
600	700	400
600	700	450
600	700	500
600	700	600
600	750	100
600	750	150
600	750	200
600	750	250
600	750	300
600	750	350
600	750	400
600	750	450
600	750	500
600	800	0
600	800	100
600	800	150
600	800	200
600	800	250
600	800	300
600	800	350
600	800	400
600	800	450
600	800	500
600	800	600
600	800	800
600	800	1000
600	850	200
600	850	250
600	850	300
600	850	350
600	850	400
600	900	0
600	900	100
600	900	200
600	900	250
600	900	300
600	900	350
600	900	400
600	900	500
600	900	600
600	1000	0
600	1000	100
600	1000	200
600	1000	300
600	1000	400
600	1000	500
600	1000	600
600	1000	800
600	1000	1000
600	1100	0
600	1100	100
600	1100	200
600	1100	300
600	1100	400
600	1100	500
600	1100	600
600	1200	0
600	1200	100
600	1200	200
600	1200	300
600	1200	400
600	1200	500
600	1200	600
600	1200	800
600	1200	1000
600	1300	200
600	1300	300
600	1300	400
600	1300	500
600	1300	600
600	1400	0
600	1400	200
600	1400	300
600	1400	400
600	1400	500
600	1400	600
600	1400	700
600	1400	800
600	1400	1000
600	1500	200
600	1500	300
600	1500	400
600	1500	500
600	1500	600
600	1500	700
600	1500	800
600	1600	0
600	1600	200
600	1600	300
600	1600	400
600	1600	500
600	1600	600
600	1600	700
600	1600	800
600	1600	1000
600	1700	200
600	1700	300
600	1700	400
600	1700	500
600	1700	600
600	1800	0
600	1800	200
600	1800	300
600	1800	400
600	1800	500
600	1800	600
600	1800	800
600	1800	1000
600	2000	0
600	2000	200
600	2000	400
600	2000	600
600	2000	800
600	2000	1000
650	500	100
650	500	150
650	500	200
650	500	250
650	500	300
650	500	350
650	500	400
650	550	100
650	550	150
650	550	200
650	550	250
650	550	300
650	550	350
650	550	400
650	600	100
650	600	150
650	600	200
650	600	250
650	600	300
650	600	350
650	600	400
650	600	450
650	600	500
650	650	100
650	650	150
650	650	200
650	650	250
650	650	300
650	650	350
650	650	400
650	650	450
650	650	500
650	700	100
650	700	150
650	700	200
650	700	250
650	700	300
650	700	350
650	700	400
650	700	450
650	700	500
650	750	100
650	750	150
650	750	200
650	750	250
650	750	300
650	750	350
650	750	400
650	750	450
650	750	500
650	800	100
650	800	150
650	800	200
650	800	250
650	800	300
650	800	350
650	800	400
650	800	450
650	800	500
650	850	200
650	850	250
650	850	300
650	850	350
650	850	400
650	900	200
650	900	250
650	900	300
650	900	350
650	900	400
700	200	200
700	200	300
700	200	400
700	300	200
700	300	300
700	300	400
700	400	0
700	400	100
700	400	200
700	400	300
700	400	400
700	400	500
700	400	600
700	500	0
700	500	100
700	500	150
700	500	200
700	500	250
700	500	300
700	500	350
700	500	400
700	500	500
700	500	600
700	550	100
700	550	150
700	550	200
700	550	250
700	550	300
700	550	350
700	550	400
700	600	0
700	600	100
700	600	150
700	600	200
700	600	250
700	600	300
700	600	350
700	600	400
700	600	450
700	600	500
700	600	600
700	650	100
700	650	150
700	650	200
700	650	250
700	650	300
700	650	350
700	650	400
700	650	450
700	650	500
700	700	0
700	700	100
700	700	150
700	700	200
700	700	250
700	700	300
700	700	350
700	700	400
700	700	450
700	700	500
700	700	600
700	750	100
700	750	150
700	750	200
700	750	250
700	750	300
700	750	350
700	750	400
700	750	450
700	750	500
700	800	0
700	800	100
700	800	150
700	800	200
700	800	250
700	800	300
700	800	350
700	800	400
700	800	450
700	800	500
700	800	600
700	850	200
700	850	250
700	850	300
700	850	350
700	850	400
700	900	0
700	900	100
700	900	200
700	900	250
700	900	300
700	900	350
700	900	400
700	900	500
700	900	600
700	950	200
700	950	250
700	950	300
700	1000	0
700	1000	100
700	1000	200
700	1000	250
700	1000	300
700	1000	350
700	1000	400
700	1000	500
700	1000	600
700	1050	200
700	1050	250
700	1050	300
700	1050	350
700	1050	400
700	1100	0
700	1100	100
700	1100	200
700	1100	250
700	1100	300
700	1100	350
700	1100	400
700	1100	500
700	1100	600
700	1150	200
700	1150	250
700	1150	300
700	1150	350
700	1150	400
700	1200	0
700	1200	100
700	1200	200
700	1200	250
700	1200	300
700	1200	350
700	1200	400
700	1200	500
700	1200	600
700	1300	200
700	1300	300
700	1300	400
700	1300	500
700	1300	600
700	1400	200
700	1400	300
700	1400	400
700	1400	500
700	1400	600
700	1400	700
700	1400	800
700	1500	200
700	1500	300
700	1500	400
700	1500	500
700	1500	600
700	1500	700
700	1500	800
700	1600	200
700	1600	300
700	1600	400
700	1600	500
700	1600	600
700	1600	700
700	1600	800
700	1700	200
700	1700	300
700	1700	400
700	1700	500
700	1700	600
700	1800	200
700	1800	300
700	1800	400
700	1800	500
700	1800	600
750	500	200
750	500	250
750	500	300
750	500	350
750	500	400
750	550	200
750	550	250
750	550	300
750	550	350
750	550	400
750	600	100
750	600	150
750	600	200
[...]
CELL_DATA	2621
SCALARS density double 1
LOOKUP_TABLE table0
-0.0119621
3.31309
-14.095
-9.42497
-5.68296
0.261538
0.0206059
-11.9196
-6.56927
-3.44562
-0.0271477
2.57455
-9.70637
-3.37888
-0.913533
0.06521
-1.30437
-9.80876
-2.20197
0.758692
0.272356
-7.47874
-16.2597
-5.29163
0.152508
-0.882966
-0.677098
-11.4883
-6.82902
-1.97152
-0.600827
0.562948
-5.04347
-5.19109
-3.61568
0.372567
-10.7033
-5.78887
-3.32013
-4.61198
-0.246291
5.9436
3.22665
-3.08962
-8.88001
0.0926685
-1.41843
-5.38022
-10.5912
-15.8974
-0.359852
2.82771
-2.94104
-1.00448
-0.52846
-0.141058
1.09731
1.69795
2.83269
2.0387
0.968675
-14.8304
7.22741
8.21256
5.32041
0.0173045
-0.908765
13.9695
13.3222
8.52724
0.178637
11.5744
1.59405
-0.0651492
-4.57718
-8.37551
-5.14348
-26.3093
-19.0675
5.66622
12.472
9.82724
-1.19465
2.77744
-1.78498
6.69513
8.31058
-1.72257
-0.300652
-2.08719
2.52049
5.25262
-0.870606
2.53374
-3.79141
-0.895784
0.922237
-0.0931999
-6.45951
-5.96408
-6.77922
-7.79024
-0.0677261
-1.12299
-8.21528
-12.9883
-15.9175
-0.396773
-3.7729
0.991092
1.31449
0.923664
-0.850344
-0.601789
7.80672
5.32456
3.17009
-3.07354
6.7116
-0.705984
12.1637
-1.78048
17.9517
8.24341
36.8657
17.0599
29.7235
26.5505
35.8513
36.8412
38.1368
37.621
37.8559
51.4283
59.8244
55.3517
66.9771
76.4477
87.1828
57.0304
26.5771
12.2421
6.27478
0.314053
14.1332
5.8907
15.6235
17.335
30.0117
40.8439
30.8586
45.7174
54.9252
75.1244
56.2373
76.2216
16.5342
33.454
47.0244
29.6928
45.5788
56.6375
73.2766
49.5281
69.7754
36.7951
45.9351
32.5574
41.5265
56.1292
60.3901
60.4314
65.7711
82.9149
88.6326
88.8602
96.846
62.6465
70.8621
66.3591
67.3419
87.2624
75.6616
92.3189
80.268
61.3256
66.8981
55.4266
60.52
91.3899
94.2857
79.4696
84.4383
68.161
63.5551
66.5876
62.3713
93.703
87.8769
90.1566
85.1073
53.5449
54.0291
52.948
54.0682
61.7754
56.1982
65.4378
57.1095
21.182
9.81819
4.03713
2.04127
4.18158
-5.43688
5.85472
28.4824
6.94691
11.2494
8.90351
15.0336
-25.4782
-22.6318
-30.544
-29.2229
-14.5681
-14.9097
-21.968
-24.173
-5.14506
42.5833
58.4592
10.3859
16.6425
38.9639
45.6989
25.3332
41.3039
53.0848
50.5473
42.0232
48.2
24.7798
12.34
-0.0396268
-24.1308
-25.6391
-12.4098
-19.1481
-15.6827
-20.3412
-21.2956
-29.982
10.4007
18.9187
12.991
-2.07119
-12.246
-3.21942
13.4934
12.9076
-1.7974
-9.35921
-8.07329
6.7125
10.2615
-1.37665
-0.901622
-8.84063
-4.67831
-0.758553
-1.02428
3.76791
-7.67667
-11.7339
-11.1285
-0.55004
1.24052
1.49136
1.22869
0.774239
-0.765846
13.0778
13.7959
16.7423
15.114
13.9811
13.1045
17.6986
14.5787
7.32169
4.00434
2.00108
2.84482
32.8076
19.5293
40.9742
60.9395
54.4871
78.0157
64.3654
78.0628
71.5471
98.3029
4.84531
46.8026
24.947
94.6775
76.0257
71.8915
80.7794
83.6002
99.8439
112.081
106.423
109.35
121.567
131.178
89.4651
69.7485
98.8246
96.0837
122.027
101.536
128.576
129.96
99.8811
81.0508
119.009
124.537
141.639
133.435
119.203
124.563
139.189
135.859
136.333
105.976
157.779
143.674
123.741
95.2646
155.72
130.997
24.4251
22.863
28.5765
24.0023
23.7503
22.6204
26.7558
23.515
8.78745
3.5143
35.2713
74.0435
98.5949
80.2644
104.78
88.3025
120.533
96.5098
127.663
33.4522
78.9178
100.34
71.8092
97.2074
94.9494
126.363
89.9959
118.678
41.3263
102.164
132.015
110.533
148.389
101.499
131.572
111.167
142.47
43.0618
108.091
147.787
102.07
130.162
112.052
147.479
99.7991
135.064
111.289
108.785
118.303
120.754
141.688
140.68
148.531
152.008
112.681
114.801
117.99
119.101
135.851
136.749
134.251
140.785
125.803
127.726
113.104
116.408
150.957
151.112
137.778
144
114.681
115.45
108.374
102.192
134.342
143.348
129.976
127.489
155.868
157.202
167.585
173.046
162.291
166.38
174.254
186.941
154.411
145.678
144.964
157.044
168.788
138.536
171.298
166.718
161.385
170.669
146.222
157.274
176.612
182.599
155.246
168.254
152.255
160.165
154.667
155.972
176.498
174.288
172.878
167.108
89.5872
54.9132
114.441
87.41
113.018
70.5657
139.625
104.92
55.0453
115.753
94.856
105.021
90.6939
139.723
115.731
124.247
110.917
60.766
117.735
69.6058
149.381
103.601
103.02
60.0704
133.654
88.8254
56.0298
151.544
116.626
135.263
114.988
139.714
100.775
127.745
102.303
60.7313
15.8258
5.21034
25.2636
66.1331
4.84694
17.3454
28.6573
79.2835
6.8615
22.8672
91.6132
92.347
70.75
73.1212
111.23
118.714
84.9826
93.9534
96.4185
94.228
75.32
75.145
114.946
115.324
95.4484
94.3489
32.5408
50.6117
126.042
138.642
93.3615
103.287
136.952
143.912
93.3377
109.896
142.929
55.5481
67.8402
24.4273
37.1466
57.4713
75.6724
29.306
40.0754
80.0482
77.6336
71.4341
67.2232
69.0748
79.8097
71.4361
71.3802
69.8966
20.9953
6.91884
0.00184918
-1.62676
-0.572689
-8.31665
-0.985491
-6.05215
-3.33939
-14.5926
-4.21417
6.68472
-20.1379
-10.4903
5.05578
16.1271
-11.8693
-7.71506
10.5458
23.0137
-8.14108
-1.8786
26.4602
34.0044
-5.27234
1.69339
26.8419
32.874
-0.182436
3.96739
-19.5372
-19.281
-22.6777
-23.9206
-17.1988
-15.7045
-18.9336
-20.9899
-10.9321
-6.00231
-1.30942
-1.67593
-3.40979
-1.81614
5.87816
4.58411
31.1257
39.3898
16.7127
33.8666
40.2893
42.3815
31.8688
39.8706
23.2073
9.95901
-4.35208
-25.3264
-19.2891
-25.0292
-14.9335
-3.14676
13.8562
16.2219
28.5423
6.53
18.1079
2.01871
14.4976
29.9574
31.4973
33.1736
32.8593
19.7817
17.5305
-4.7124
-27.5081
-13.9629
-34.1207
-22.4923
19.6426
33.1528
2.3164
24.2942
-3.68365
8.64543
-8.15265
5.71843
32.7368
31.1867
29.1179
31.629
12.4324
13.4263
10.647
12.3415
26.334
22.8257
26.3494
23.1945
22.3572
-3.62792
-27.7544
-18.8507
-0.701217
-10.0061
-10.4462
7.16539
5.26722
1.90316
-9.30125
2.7653
-16.7889
-9.3375
20.7429
27.0463
4.17295
10.0615
4.84513
11.8912
-0.976026
-13.534
-22.7754
-11.4627
-3.42312
-0.50258
1.15264
0.919612
0.620123
0.194421
-0.223867
8.665
3.42146
1.30149
-0.0170068
3.07578
30.3777
19.1033
68.1988
2.10086
24.2672
3.7983
35.5265
67.6856
41.2653
97.1257
59.4859
63.0228
38.2146
66.0212
80.7414
69.9718
100.226
40.6931
54.6448
44.2696
64.872
46.7222
7.8055
1.30937
-1.13467
35.1788
91.8412
121.763
100.126
132.085
76.3702
111.043
81.7063
114.341
32.7799
99.7679
133.495
84.5673
119.731
77.5902
108.861
65.4828
98.0563
18.2397
63.8198
81.9698
61.2141
84.9457
29.7706
41.4118
29.6473
36.9184
13.3456
52.5769
73.2503
40.5125
55.3314
26.0657
29.8314
21.6941
16.6018
186.2
171.049
125.854
204.334
172.001
149.651
107.436
190.879
153.639
181.087
198.043
179.748
178.507
166.364
190.968
165.504
170.275
156.413
97.3021
112.396
109.918
112.425
48.0797
56.7624
50.2504
53.7987
113.215
95.1061
134.737
119.004
48.7054
37.9072
67.8492
53.8105
102.15
112.805
85.7703
98.2313
44.3637
53.7239
29.5124
50.8864
130.676
120.911
116.89
113.449
69.9634
56.5887
66.3826
59.7211
32.3697
19.8007
40.875
23.7234
22.326
16.2558
26.4816
18.1381
0.57448
-3.20651
19.2195
64.5997
94.0265
48.3944
69.2547
49.8522
75.1554
38.1014
53.2397
3.23085
11.655
6.26276
29.3885
43.7067
20.047
25.9791
10.8678
16.4553
6.54633
13.0412
-2.10065
-7.87905
125.214
149.364
89.2714
109.076
101.105
116.37
72.9514
79.695
130.199
50.6021
90.0228
66.5934
73.6422
47.3187
57.3196
27.2978
32.0587
11.9639
33.7645
85.7999
102.955
74.0927
86.5945
53.4572
60.357
48.1103
54.0652
47.5628
67.5138
70.3918
57.1298
56.4479
44.5012
45.6505
37.6203
36.4426
50.1467
34.5772
48.3926
37.0919
36.7157
28.5777
39.3831
32.5495
1.11848
-4.35263
-6.58622
14.6195
35.8499
6.11959
33.2809
26.7958
33.7292
40.9643
46.5319
37.9584
27.5029
25.5275
33.161
29.636
27.3033
25.5066
32.6122
29.3953
0.55941
-8.43055
-3.71847
6.10244
24.9248
9.68764
34.3036
26.8917
22.2851
-5.64162
12.714
16.3691
36.0661
23.4156
38.5307
51.4107
62.1228
27.6142
47.3743
46.3068
60.6822
51.8122
69.3409
68.4613
80.8353
37.1547
54.2125
49.8194
68.1329
89.5573
89.5743
89.5492
89.5323
89.4674
54.4475
70.4924
97.5071
97.5157
63.0246
78.7516
97.5107
97.5189
97.5394
89.7499
117.415
93.705
127.353
100.92
133.157
109.48
151.207
122.886
128.867
137.392
143.07
149.761
157.051
166.009
169.399
85.5329
90.7434
89.4816
89.4478
97.5517
97.558
122.933
110.696
89.4509
85.4769
94.7483
88.5866
94.74
89.9655
102.226
94.0674
21.7861
17.6958
24.6394
19.4667
21.7523
17.7744
24.6305
19.5325
6.26835
27.4285
-4.27217
2.38808
30.1695
22.1221
3.66381
22.1068
89.4253
89.448
72.8894
93.7115
6.5615
34.4468
85.6697
105.266
29.1722
56.5145
89.4021
93.4306
125.72
122.892
122.869
109.327
141.85
122.961
123.062
122.99
85.6815
121.589
89.229
89.223
89.2234
92.1453
122.826
99.0245
98.9883
99.5364
93.0249
85.4877
85.8536
77.6034
98.5641
91.8178
99.5673
85.8941
31.8639
-5.78477
-13.8737
-6.02807
-5.23034
-2.30897
-7.82334
-2.91699
-12.3299
-8.80177
17.2985
-12.5866
-1.15396
4.83801
27.7635
-2.50146
9.86771
41.6129
43.0416
8.95091
34.6046
51.3851
62.7208
24.2847
48.6226
-5.49411
-2.86953
28.8405
66.2796
-13.3258
11.4348
62.5597
69.5872
15.4506
32.0362
33.9705
12.249
14.792
37.7887
39.2056
19.8856
22.2066
96.2348
99.5749
36.2075
51.9125
50.6114
36.7644
24.9092
19.995
58.8008
42.1277
37.9362
27.3665
25.6932
-0.266795
-24.363
-12.3493
-11.3883
-35.3801
-32.2855
-11.6552
-0.553699
-37.6192
-26.9328
-3.55504
7.11442
-0.0594021
0.500365
0.422889
0.0955911
-0.360545
-0.0949445
-0.00553281
-0.671754
-1.44339
-2.10056
0.211652
-1.92694
1.26184
-0.685554
-3.30982
-3.17112
-9.22875
-17.9042
-21.2762
-22.1998
-21.3548
-22.608
-24.5807
-21.7807
-23.3535
-35.1118
-44.5951
-71.9759
-55.0381
-64.8433
-80.0439
-111.094
-26.6532
-9.52295
-7.0003
-6.14677
1.87274
3.8431
16.0572
10.8811
15.1321
-2.56531
-5.11202
-1.74041
-10.8477
1.94042
4.82707
0.780002
-6.26323
-9.846
-9.94216
-25.0934
-22.4496
-31.1045
-13.9977
-11.6962
-17.7955
-19.8517
-27.5279
-46.4003
-66.03
-55.0435
-71.1563
-15.4924
-25.6898
-38.401
-36.2893
-45.6562
-56.189
-62.2546
-49.7266
-51.1384
14.1127
26.1512
6.99436
29.4351
-0.235036
-25.3624
-9.34071
-16.4637
21.6114
4.33828
30.2205
12.5685
-57.9132
-55.6859
-51.9407
-58.0407
2.64192
19.1191
-6.46479
14.1888
-22.529
-20.5791
-26.5186
-17.5684
32.744
20.4801
26.5412
20.3394
-39.7793
-49.4081
-27.1871
-36.7284
-33.1635
-56.5713
-45.1639
-68.2121
-66.7116
-105.47
-78.787
-130.903
-87.5528
-68.0469
-105.737
-90.4194
-135.723
-104.423
-162.658
-132.773
-61.4251
-78.7659
-67.06
-68.0256
-92.2566
-142.199
-91.4031
-120.331
-101.883
-88.9563
-80.6347
-75.8776
-163.473
-135.386
-134.193
-117.917
-31.5329
-31.5652
-31.0748
-31.3096
-34.0588
-32.4705
-34.377
-32.7529
-18.1395
-12.6072
-1.04843
-10.5512
-6.55458
-13.2772
-12.7769
-17.1461
-11.4472
-11.3963
-11.3425
4.18883
-8.16028
5.83549
-15.176
-4.9647
-12.0074
-5.75312
-18.5686
-1.68263
-2.67262
-40.6384
-35.4247
10.6209
-7.33547
-33.044
-33.9709
-29.3559
-31.3217
-36.0759
-35.9135
-32.7686
-33.6206
-24.5026
-17.061
-8.24545
-7.79051
-4.92525
5.42171
-8.79633
-7.89794
-0.0877929
1.88401
41.2155
50.9192
62.069
69.3772
55.8584
51.9515
49.3638
59.8898
30.6534
20.1755
47.097
32.9916
39.3532
32.9325
53.6579
47.0074
3.95584
2.28082
9.94765
6.75746
3.33198
1.48479
8.64049
5.39589
-11.1646
10.812
42.9263
47.1354
21.7407
21.6565
24.1137
21.735
74.8476
21.65
75.8224
21.714
19.2632
30.6127
50.0812
54.512
61.9318
47.2402
65.3329
62.7136
72.4988
50.7467
76.6039
21.57
83.8144
21.65
80.3086
21.4497
84.7774
21.519
72.4881
91.0534
97.5156
97.5231
76.5185
99.4155
97.5225
97.5286
97.5461
104.312
144.426
115.259
166.233
111.241
157.584
124.261
182.592
166.757
167.834
187.857
185.19
179.864
173.072
199.136
196.57
97.5297
97.544
111.176
170.45
130.131
196.311
114.377
170.221
130.899
191.219
186.653
175.174
202.388
202.682
183.571
179.936
206.689
201.333
97.5539
97.5578
122.788
99.4059
97.5546
97.5574
122.762
98.9312
85.8815
80.5858
99.7056
85.3773
83.4183
78.6949
99.2654
82.7694
12.928
9.03902
16.1114
11.0615
12.0252
8.4656
14.8889
10.289
43.6427
21.9726
15.2312
21.9927
54.599
21.9206
25.8056
22.0052
119.191
154.487
123.114
123.24
128.313
170.584
123.152
123.284
123.274
92.6089
117.299
66.8746
96.8222
98.7654
125.119
72.5622
104.827
99.2625
131.38
174.334
123.153
123.23
131.03
177.154
123.05
123.152
123.326
101.595
127.793
73.6765
106.455
103.575
130.392
77.8109
109.252
98.7585
105.198
84.5649
66.0146
86.6382
65.3332
79.6371
63.4343
81.432
62.6786
30.2071
-2.09104
3.06401
-3.10427
-12.7874
1.58556
10.3037
-0.947402
-13.015
44.2578
90.8071
103.487
51.3308
72.4058
95.495
108.098
57.9258
79.5916
-12.806
17.2083
34.4146
-5.40722
8.7915
20.0175
37.363
-5.87442
10.6129
51.4978
79.0539
25.0226
45.4952
54.7176
83.8192
26.9647
48.7349
95.8767
103.115
63.5211
79.6617
98.1809
104.27
67.6811
81.8817
-17.0449
23.4361
41.1057
-5.64197
16.1656
28.5632
45.2593
-5.20645
17.9066
91.8972
78.3425
43.076
56.7631
88.58
73.5326
43.4715
54.526
40.5684
31.0096
-0.361744
-33.023
-37.311
-44.3872
-52.9506
-30.4773
-29.9731
-25.1587
-38.9986
-18.2443
1.43233
-42.2997
-22.3717
-11.4026
5.81817
-28.8393
-13.1519
6.15522
14.4869
-0.0240111
0.216453
0.238825
-0.192448
-0.71012
-1.01859
-5.77574
-3.77893
-3.70166
-3.82404
-3.98546
-31.5711
-17.4089
-31.6687
-48.6764
-56.0784
-80.148
-48.0812
-71.8872
-69.478
-108.094
-8.44545
-35.2518
-23.942
-52.8772
-75.0807
-74.6534
-113.447
-52.6056
-71.5535
-73.3571
-107.843
-73.8841
-60.6813
-74.5923
-86.8019
-100.647
-135.546
-102.857
-107.948
-125.998
-160.62
-80.0857
-65.2813
-121.669
-94.05
-96.1393
-77.6201
-145.516
-112.976
-67.4942
-56.7296
-112.018
-110.096
-137.495
-166.99
-103.238
-103.334
-131.244
-155.313
-96.3512
-76.6468
-150.298
-116.082
-93.2985
-75.7901
-142.304
-113.442
-22.3959
-22.2277
-23.8666
-22.8054
-22.3996
-22.2085
-24.322
-22.9837
-13.7667
-10.2334
-13.7477
-41.4465
-17.4176
-51.0541
-15.9364
-51.8357
-20.4519
-64.6123
-72.3887
-65.9507
-85.4457
-101.316
-91.9512
-111.95
-109.672
-138.331
-34.6378
-85.6904
-105.659
-66.2482
-95.0179
-107.738
-138.057
-86.661
-114.834
-19.3425
-60.227
-23.2121
-72.4973
-20.4744
-61.354
-24.4258
-74.2818
-101.295
-136.619
-121.237
-153.917
-100.623
-134.232
-117.489
-153.476
-21.9381
-70.4793
-19.2262
-61.0808
-22.4404
-70.8795
-18.3727
-60.6125
-118.057
-152.784
-103.585
-132.033
-116.516
-158.411
-107.199
-147.297
-107.599
-134.161
-116.813
-163.338
-141.269
-169.85
-146.338
-202.637
-159.933
-126.385
-192.739
-154.825
-186.993
-150.63
-227.183
-184.866
-117.913
-174.945
-103.649
-141.217
-137.803
-211.252
-120.44
-176.26
-193.419
-165.274
-159.257
-146.851
-231.628
-200.321
-194.847
-179.474
-161.121
-183.277
-169.142
-216.658
-158.897
-177.627
-172.377
-208.612
-189.985
-152.029
-234.169
-189.895
-177.366
-142.796
-221.411
-180.643
-160.516
-227.092
-144.679
-192.862
-173.049
-219.778
-160.274
-195.197
-242.253
-207.468
-207.311
-188.434
-232.668
-197.495
-203.336
-180.608
-93.0392
-63.298
-111.394
-79.1167
-109.608
-76.3177
-130.319
-94.036
-73.1594
-89.2538
-75.6326
-111.079
-76.6067
-133.553
-96.025
-105.675
-74.5572
-127.239
-93.8389
-71.8439
-89.537
-75.1762
-31.8735
-19.5518
-21.5128
-51.4031
-70.7761
-29.1482
-39.6819
-73.1922
-98.3797
-44.2724
-53.9156
-12.531
-16.8672
-27.7458
-85.9026
-119.595
-58.9671
-67.0508
-84.5597
-126.391
-72.7504
-85.6524
-10.4958
-13.7867
-98.2299
-116.995
-53.2705
-71.1356
-129.152
-147.898
-73.5953
-94.5741
-87.154
-49.6988
-62.4218
-142.203
-159.664
-83.9882
-108.646
-147.746
-166.094
-94.177
-119.345
-97.7465
-76.9454
-76.5613
-68.0449
-67.2109
-64.7431
-64.7747
-69.0744
-68.0179
-66.0838
-65.9451
-39.782
-24.97
-4.89066
-3.07319
3.66433
-0.220863
-0.522882
-2.11313
5.76425
1.7039
2.20555
5.48747
1.01398
14.769
-13.1178
-6.20951
-5.60908
4.91423
4.90807
2.3863
18.0575
16.0285
-2.40438
-2.65356
8.36212
7.54361
-16.2897
-18.1126
20.6757
65.1392
50.9898
86.7106
21.3358
84.4653
21.2919
89.9165
21.2411
96.4021
21.2279
19.7657
40.7553
47.8909
64.2677
64.3898
36.0941
53.0353
57.4657
62.9549
47.7158
79.8362
21.2462
94.2174
21.206
69.1391
21.2814
82.1047
21.2719
95.8256
99.2718
97.5399
97.5382
64.7367
72.5631
97.5265
97.5317
97.7038
97.4996
97.5375
97.538
82.5563
86.0984
97.5317
97.5327
116.466
165.805
131.339
192.784
114.114
168.923
128.127
189.094
173.621
179.98
196.432
192.512
167.946
181.448
201.716
197.09
47.1609
65.5726
97.5169
97.5187
47.3268
64.6618
97.5064
97.5106
77.652
82.3595
97.5204
97.5226
75.1535
80.634
97.5123
97.5149
109.324
167.492
120.046
172.959
102.59
142.334
112.463
158.504
166.574
178.087
201.737
197.407
158.318
172.257
189.278
192.177
97.5401
97.5426
122.796
99.0081
97.527
97.5285
122.942
129.358
109.277
117.586
101.614
102.273
99.9384
96.5068
94.7909
36.2137
24.3093
48.032
31.9189
26.0454
16.8226
35.0734
22.2005
-0.424784
51.6627
32.176
21.2064
13.9429
21.1699
88.0863
21.1647
70.6601
21.1892
19.9291
34.4949
21.1484
34.3665
47.0061
46.169
21.0959
37.7501
52.0195
46.5446
88.7159
21.1964
71.5896
21.1996
76.7059
21.2453
62.9925
21.2685
16.5144
44.5186
21.1896
35.1061
51.7157
40.7556
21.2328
32.7147
46.5049
128.318
171.08
122.985
123.161
123.102
172.751
123.043
123.083
131.865
115.057
123.119
122.939
182.15
173.594
123.015
123.001
100.555
128.994
85.7422
109.376
100.215
131.789
86.5683
115.2
113.886
96.7028
101.594
87.6021
137.721
137.243
129.224
127.758
120.146
172.693
123.052
122.994
113.589
163.507
123.001
122.968
185.35
177.24
122.921
123.055
172.48
171.248
122.966
122.995
98.3517
132.683
84.9959
114.65
95.1416
127.653
82.1341
106.957
139.139
125.39
131.541
128.135
122.087
102.107
119.597
117.224
122.862
97.6854
97.6874
102.164
122.848
38.3644
48.4866
33.1902
110.525
84.0189
41.9659
29.8567
92.6726
64.6392
60.966
46.8587
20.5485
4.44486
12.8438
-6.30126
-17.3591
1.55061
13.1416
-1.81204
-12.8347
56.6873
85.4154
24.9899
47.1688
57.5729
87.8143
25.9209
47.2923
99.5679
104.028
70.6959
87.7157
107.051
116.1
73.6219
90.3233
-4.5709
11.6343
-26.4618
-17.2386
-1.97492
13.1197
-21.92
-12.9885
33.2446
46.5795
-1.93708
15.4484
32.8404
46.0192
1.53018
15.7967
56.3194
86.1888
26.4431
45.9186
53.0181
78.4079
27.3409
44.9587
104.886
115.539
75.3714
88.3425
95.4847
100.105
69.6153
84.2625
-1.3295
11.117
-17.7266
-10.0716
-2.56821
7.06893
-17.1795
-10.5931
23.2921
92.1176
75.8725
42.1476
47.5615
77.7409
60.6201
28.6624
38.8577
35.5951
25.2527
-0.523675
-30.5843
-28.0425
-12.1475
-25.8852
-17.3824
-16.1971
-2.86507
-15.313
-5.58631
8.04595
13.5386
-0.296504
3.37558
0.981249
-0.0174255
-0.588423
-0.766961
-4.10986
-5.04479
-4.96939
-4.65717
-4.74336
-28.9675
-16.0059
-64.5705
-0.843034
-15.3289
-8.24772
-43.2437
-53.972
-48.2297
-87.1715
-98.0043
-116.024
-138.055
-72.1452
-81.7113
-97.8782
-111.078
-70.1949
-12.3109
-32.0474
-57.6479
-54.0808
-26.7163
-16.6204
-11.9161
-28.0984
-84.4912
-118.754
-99.9986
-140.749
-70.1109
-99.3429
-80.2836
-119.375
-19.7427
-58.8678
-16.4924
-52.232
-12.8932
-42.3331
-12.272
-39.6203
-104.311
-153.521
-93.5046
-144.779
-83.4379
-131.655
-78.6526
-122.41
-11.6626
-58.6115
-9.82202
-62.0532
-144.999
-162.581
-162.339
-188.597
-122.023
-141.319
-142.647
-169.533
-166.806
-140.675
-211.572
-181.043
-140.338
-121.216
-184.592
-161.476
-194.928
-225.198
-190.091
-203.166
-174.356
-200.623
-169.273
-182.729
-155.45
-98.2725
-109.104
-114.412
-137.896
-75.3032
-80.0417
-86.766
-101.165
-121.227
-112.149
-159.003
-146.164
-84.7601
-83.4716
-116.417
-114.048
-125.223
-160.262
-119.641
-151.338
-88.944
-110.842
-83.158
-102.908
-171.893
-152.26
-154.545
-137.94
-125.459
-119.38
-113.028
-109.01
-63.5807
-61.3147
-64.4764
-61.9273
-62.9678
-61.42
-63.4092
-61.9901
-32.0312
-20.4584
-13.1259
-73.3411
-115.232
-61.2217
-96.311
-58.981
-98.5827
-44.1211
-80.9548
-5.74195
-3.13063
-3.29155
-40.1079
-1.0894
-18.1726
-150.066
-165.97
-98.9446
-118.921
-133.497
-150.508
-98.803
-111.397
-91.8457
-76.9756
-73.1622
-59.5245
-66.958
-20.5212
-53.1218
-50.0587
-33.0941
-23.0584
-0.0305282
-16.0911
-9.70435
-7.00605
-3.63599
32.2266
2.32513
2.82467
-8.10266
-12.5573
-13.195
-8.10618
-7.8831
-13.533
-14.46
-10.1372
-12.6912
-17.4694
-16.0591
14.2713
54.204
32.3067
21.4246
5.56067
39.7565
12.684
21.4824
97.495
97.4981
103.129
135.691
113.858
155.996
122.962
123.111
123.042
123.166
123.058
83.5625
96.5365
98.3443
111.324
27.1004
30.9178
54.4129
57.2842
97.4744
89.6697
108.543
93.0411
114.723
58.5572
76.6802
63.69
89.8813
85.4062
97.4931
97.9426
57.4626
100.185
85.0237
95.0138
47.5796
96.9641
70.9493
122.96
39.6739
81.5246
35.4387
74.105
32.4941
67.1466
28.4498
61.6566
95.8853
93.5632
101.997
99.3936
48.1505
38.3814
67.6206
59.312
39.2915
33.9696
24.3728
16.1743
12.9264
18.4498