# vtk DataFile Version 3.0
Gravity inversion using rectangular prisms
ASCII
DATASET UNSTRUCTURED_GRID

POINTS	3823	double
0	0	0
0	0	200
0	0	400
0	0	600
0	0	800
0	0	1000
0	200	0
0	200	200
0	200	400
0	200	600
0	200	800
0	200	1000
0	400	0
0	400	200
0	400	400
0	400	600
0	400	800
0	400	1000
0	600	0
0	600	200
0	600	400
0	600	600
0	600	800
0	600	1000
0	800	0
0	800	200
0	800	400
0	800	600
0	800	800
0	800	1000
0	1000	0
0	1000	200
0	1000	400
0	1000	600
0	1000	800
0	1000	1000
0	1200	0
0	1200	200
0	1200	400
0	1200	600
0	1200	800
0	1200	1000
0	1400	0
0	1400	200
0	1400	400
0	1400	600
0	1400	800
0	1400	1000
0	1600	0
0	1600	200
0	1600	400
0	1600	600
0	1600	800
0	1600	1000
0	1800	0
0	1800	200
0	1800	400
0	1800	600
0	1800	800
0	1800	1000
0	2000	0
0	2000	200
0	2000	400
0	2000	600
0	2000	800
0	2000	1000
200	0	0
200	0	200
200	0	400
200	0	600
200	0	800
200	0	1000
200	200	0
200	200	200
200	200	400
200	200	600
200	200	800
200	200	1000
200	400	0
200	400	200
200	400	400
200	400	600
200	400	800
200	400	1000
200	600	0
200	600	200
200	600	400
200	600	600
200	600	800
200	600	1000
200	800	0
200	800	200
200	800	400
200	800	600
200	800	800
200	800	1000
200	1000	0
200	1000	200
200	1000	400
200	1000	600
200	1000	800
200	1000	1000
200	1200	0
200	1200	200
200	1200	400
200	1200	600
200	1200	800
200	1200	1000
200	1400	0
200	1400	200
200	1400	400
200	1400	600
200	1400	800
200	1400	1000
200	1600	0
200	1600	200
200	1600	400
200	1600	600
200	1600	800
200	1600	1000
200	1800	0
200	1800	200
200	1800	400
200	1800	600
200	1800	800
200	1800	1000
200	2000	0
200	2000	200
200	2000	400
200	2000	600
200	2000	800
200	2000	1000
400	0	0
400	0	200
400	0	400
400	0	600
400	0	800
400	0	1000
400	200	0
400	200	200
400	200	400
400	200	600
400	200	800
400	200	1000
400	400	0
400	400	100
400	400	200
400	400	400
400	400	600
400	400	800
400	400	1000
400	500	0
400	500	100
400	500	200
400	600	0
400	600	100
400	600	200
400	600	300
400	600	400
400	600	600
400	600	800
400	600	1000
400	700	0
400	700	100
400	700	200
400	700	300
400	700	400
400	800	0
400	800	100
400	800	200
400	800	300
400	800	400
400	800	600
400	800	800
400	800	1000
400	900	0
400	900	100
400	900	200
400	900	300
400	900	400
400	1000	0
400	1000	100
400	1000	200
400	1000	300
400	1000	400
400	1000	600
400	1000	800
400	1000	1000
400	1200	0
400	1200	200
400	1200	400
400	1200	600
400	1200	800
400	1200	1000
400	1400	0
400	1400	200
400	1400	400
400	1400	600
400	1400	800
400	1400	1000
400	1600	0
400	1600	200
400	1600	400
400	1600	600
400	1600	800
400	1600	1000
400	1800	0
400	1800	200
400	1800	400
400	1800	600
400	1800	800
400	1800	1000
400	2000	0
400	2000	200
400	2000	400
400	2000	600
400	2000	800
400	2000	1000
500	400	0
500	400	100
500	400	200
500	500	0
500	500	100
500	500	200
500	600	0
500	600	100
500	600	150
500	600	200
500	600	300
500	600	400
500	650	100
500	650	150
500	650	200
500	700	0
500	700	100
500	700	150
500	700	200
500	700	300
500	700	400
500	800	0
500	800	100
500	800	200
500	800	300
500	800	400
500	900	0
500	900	100
500	900	200
500	900	300
500	900	400
500	1000	0
500	1000	100
500	1000	200
500	1000	300
500	1000	400
550	600	100
550	600	150
550	600	200
550	650	100
550	650	150
550	650	200
550	700	100
550	700	150
550	700	200
600	0	0
600	0	200
600	0	400
600	0	600
600	0	800
600	0	1000
600	200	0
600	200	200
600	200	400
600	200	600
600	200	800
600	200	1000
600	400	0
600	400	100
600	400	200
600	400	300
600	400	400
600	400	600
600	400	800
600	400	1000
600	500	0
600	500	100
600	500	150
600	500	200
600	500	300
600	500	400
600	550	100
600	550	150
600	550	200
600	600	0
600	600	50
600	600	100
600	600	150
600	600	200
600	600	250
600	600	300
600	600	400
600	600	500
600	600	600
600	600	800
600	600	1000
600	650	0
600	650	50
600	650	100
600	650	150
600	650	200
600	650	250
600	650	300
600	700	0
600	700	50
600	700	100
600	700	150
600	700	200
600	700	250
600	700	300
600	700	400
600	700	500
600	700	600
600	750	100
600	750	150
600	750	200
600	800	0
600	800	100
600	800	150
600	800	200
600	800	300
600	800	400
600	800	500
600	800	600
600	800	800
600	800	1000
600	850	100
600	850	150
600	850	200
600	900	0
600	900	100
600	900	150
600	900	200
600	900	300
600	900	400
600	1000	0
600	1000	100
600	1000	200
600	1000	300
600	1000	400
600	1000	500
600	1000	600
600	1000	800
600	1000	1000
600	1100	0
600	1100	100
600	1100	200
600	1100	300
600	1100	400
600	1100	500
600	1100	600
600	1200	0
600	1200	100
600	1200	200
600	1200	300
600	1200	400
600	1200	500
600	1200	600
600	1200	800
600	1200	1000
600	1300	200
600	1300	300
600	1300	400
600	1400	0
600	1400	200
600	1400	300
600	1400	400
600	1400	600
600	1400	800
600	1400	1000
600	1500	200
600	1500	300
600	1500	400
600	1600	0
600	1600	100
600	1600	200
600	1600	300
600	1600	400
600	1600	500
600	1600	600
600	1600	800
600	1600	1000
600	1700	0
600	1700	100
600	1700	200
600	1700	300
600	1700	400
600	1700	500
600	1700	600
600	1800	0
600	1800	100
600	1800	200
600	1800	300
600	1800	400
600	1800	500
600	1800	600
600	1800	800
600	1800	1000
600	1900	0
600	1900	100
600	1900	200
600	1900	300
600	1900	400
600	2000	0
600	2000	100
600	2000	200
600	2000	300
600	2000	400
600	2000	600
600	2000	800
600	2000	1000
650	500	100
650	500	150
650	500	200
650	550	100
650	550	150
650	550	200
650	600	0
650	600	50
650	600	100
650	600	150
650	600	200
650	600	250
650	600	300
650	650	0
650	650	50
650	650	100
650	650	150
650	650	200
650	650	250
650	650	300
650	700	0
650	700	50
650	700	100
650	700	150
650	700	200
650	700	250
650	700	300
650	750	100
650	750	150
650	750	200
650	800	100
650	800	150
650	800	200
650	850	100
650	850	150
650	850	200
650	900	100
650	900	150
650	900	200
700	400	0
700	400	100
700	400	200
700	400	300
700	400	400
700	500	0
700	500	100
700	500	150
700	500	200
700	500	300
700	500	400
700	550	100
700	550	150
700	550	200
700	600	0
700	600	50
700	600	100
700	600	150
700	600	200
700	600	250
700	600	300
700	600	400
700	600	500
700	600	600
700	650	0
700	650	50
700	650	100
700	650	150
700	650	200
700	650	250
700	650	300
700	700	0
700	700	50
700	700	100
700	700	150
700	700	200
700	700	250
700	700	300
700	700	400
700	700	500
700	700	600
700	750	100
700	750	150
700	750	200
700	800	0
700	800	100
700	800	150
700	800	200
700	800	300
700	800	400
700	800	500
700	800	600
700	850	100
700	850	150
700	850	200
700	900	0
700	900	100
700	900	150
700	900	200
700	900	300
700	900	400
700	1000	0
700	1000	100
700	1000	200
700	1000	300
700	1000	400
700	1000	500
700	1000	600
700	1100	0
700	1100	100
700	1100	200
700	1100	250
700	1100	300
700	1100	400
700	1100	500
700	1100	600
700	1150	200
700	1150	250
700	1150	300
700	1200	0
700	1200	100
700	1200	200
700	1200	250
700	1200	300
700	1200	400
700	1200	500
700	1200	600
700	1300	200
700	1300	300
700	1300	400
700	1400	200
700	1400	300
700	1400	400
700	1500	200
700	1500	300
700	1500	400
700	1600	0
700	1600	100
700	1600	200
700	1600	250
700	1600	300
700	1600	400
700	1600	500
700	1600	600
700	1650	200
700	1650	250
700	1650	300
700	1700	0
700	1700	100
700	1700	200
700	1700	250
700	1700	300
700	1700	400
700	1700	500
700	1700	600
700	1750	200
700	1750	250
700	1750	300
700	1800	0
700	1800	100
700	1800	200
700	1800	250
700	1800	300
700	1800	400
700	1800	500
700	1800	600
700	1900	0
700	1900	100
700	1900	200
700	1900	300
700	1900	400
700	2000	0
700	2000	100
700	2000	200
700	2000	300
700	2000	400
750	500	100
750	500	150
750	500	200
750	550	100
750	550	150
750	550	200
750	600	0
750	600	50
750	600	100
750	600	150
750	600	200
750	650	0
750	650	50
750	650	100
750	650	150
750	650	200
750	700	0
750	700	50
750	700	100
750	700	150
750	700	200
750	750	100
750	750	150
750	750	200
750	800	100
750	800	150
750	800	200
750	850	100
750	850	150
750	850	200
750	900	100
750	900	150
750	900	200
750	1100	200
750	1100	250
750	1100	300
750	1150	200
750	1150	250
750	1150	300
750	1200	200
750	1200	250
750	1200	300
750	1600	200
750	1600	250
750	1600	300
750	1650	200
750	1650	250
750	1650	300
750	1700	200
750	1700	250
750	1700	300
750	1750	200
750	1750	250
750	1750	300
750	1800	200
750	1800	250
750	1800	300
800	0	0
800	0	200
800	0	400
800	0	600
800	0	800
800	0	1000
800	200	0
800	200	200
800	200	400
800	200	600
800	200	800
800	200	1000
800	400	0
800	400	100
800	400	200
800	400	300
800	400	400
800	400	600
800	400	800
800	400	1000
800	500	0
800	500	100
800	500	150
800	500	200
800	500	300
800	500	400
800	550	100
800	550	150
800	550	200
800	600	0
800	600	50
800	600	100
800	600	150
800	600	200
800	600	250
800	600	300
800	600	400
800	600	500
800	600	600
800	600	800
800	600	1000
800	650	0
800	650	50
800	650	100
800	650	150
800	650	200
800	650	250
800	650	300
800	700	0
800	700	50
800	700	100
800	700	150
800	700	200
800	700	250
800	700	300
800	700	400
800	700	500
800	700	600
800	750	0
800	750	50
800	750	100
800	750	150
800	750	200
800	800	0
800	800	50
800	800	100
800	800	150
800	800	200
800	800	300
800	800	400
800	800	500
800	800	600
800	800	800
800	800	1000
800	850	100
800	850	150
800	850	200
800	900	0
800	900	100
800	900	150
800	900	200
800	900	300
800	900	400
800	1000	0
800	1000	100
800	1000	200
800	1000	300
800	1000	400
800	1000	500
800	1000	600
800	1000	800
800	1000	1000
800	1100	0
800	1100	100
800	1100	200
800	1100	250
800	1100	300
800	1100	400
800	1100	500
800	1100	600
800	1150	200
800	1150	250
800	1150	300
800	1200	0
800	1200	100
800	1200	200
800	1200	250
800	1200	300
800	1200	400
800	1200	500
800	1200	600
800	1200	700
800	1200	800
800	1200	1000
800	1250	200
800	1250	250
800	1250	300
800	1300	0
800	1300	100
800	1300	200
800	1300	250
800	1300	300
800	1300	400
800	1300	600
800	1300	700
800	1300	800
800	1400	0
800	1400	100
800	1400	200
800	1400	300
800	1400	400
800	1400	500
800	1400	600
800	1400	700
800	1400	800
800	1400	900
800	1400	1000
800	1500	0
800	1500	100
800	1500	200
800	1500	250
800	1500	300
800	1500	400
800	1500	500
800	1500	600
800	1500	700
800	1500	800
800	1500	900
800	1500	1000
800	1550	200
800	1550	250
800	1550	300
800	1600	0
800	1600	100
800	1600	200
800	1600	250
800	1600	300
800	1600	350
800	1600	400
800	1600	450
800	1600	500
800	1600	600
800	1600	700
800	1600	800
800	1600	900
800	1600	1000
800	1650	200
800	1650	250
800	1650	300
800	1650	350
[...]
CELL_DATA	2530
SCALARS density double 1
LOOKUP_TABLE table0
0.782986
-4.94142
-8.92161
-4.00729
-2.13341
0.870103
-3.75797
-6.09812
-2.38126
-1.12424
0.402967
-6.08738
-4.64332
-0.851293
-0.0246708
0.445864
-6.32822
-6.1727
-0.488674
0.923648
0.811173
-14.4195
-13.9862
-2.37653
1.50163
-0.272979
-10.3151
-16.9525
-4.8291
1.65937
-0.0819702
-6.43046
-15.9722
-6.63048
0.590952
0.873004
-18.199
-15.6799
-9.21032
-4.178
-0.0750771
9.14093
-7.43881
-18.2227
-18.3484
0.886724
-5.40995
-28.0287
-37.4636
-35.3588
0.282931
-2.49062
0.497717
1.05587
0.584782
-0.0485805
1.20112
3.61626
2.83292
1.64203
-0.108922
-0.935172
7.79395
5.2654
3.06485
-0.318568
5.76323
12.5153
8.26117
5.1391
1.4728
-4.35144
10.8008
11.2286
8.41079
-1.15282
-6.67427
7.34802
14.4459
13.3619
-2.02623
-0.0502963
6.19823
16.1234
18.0717
-0.310331
-10.3969
-1.87373
10.3345
16.4344
0.158595
0.960802
-8.93138
-6.51569
1.17695
1.09977
-9.22984
-28.1731
-25.591
-16.1689
-0.487331
1.23176
3.03959
2.10707
1.05213
-0.356318
7.23773
6.13654
3.64948
1.8269
-5.9254
20.8969
-4.00231
22.8126
-3.17853
26.8154
-2.7954
17.6682
31.1306
12.8512
6.11272
2.95412
-2.94567
15.6571
9.28937
-1.71711
-2.52308
174.645
104.41
-46.5906
51.5933
171.142
110.817
52.272
79.0759
10.7092
8.59134
55.9415
66.1853
31.0123
59.7324
100.913
76.6455
85.7833
72.5333
24.1869
10.1847
5.12039
11.9594
-28.4002
14.3923
-70.5659
0.84289
5.49618
10.0805
-4.9395
22.1687
30.2288
0.480033
24.3435
28.6185
30.8511
19.4555
26.8647
32.2102
17.1502
10.0065
0.271552
-19.9938
37.083
30.0968
20.0623
-1.73242
-26.0727
34.1477
43.1742
34.0695
-0.268009
-31.4472
11.2468
38.0302
41.3535
0.149185
-11.8549
-13.6069
14.9573
29.7853
0.880428
-11.5367
-22.987
-1.62472
13.752
0.11001
3.74678
2.52256
1.44214
0.443892
2.94893
9.30931
4.7489
2.30219
0.668217
-0.824573
79.1318
-0.218854
178.733
137.483
161.043
126.149
104.938
123.392
80.776
110.703
8.6052
58.2887
15.4494
102.592
102.54
66.6394
89.7651
142.632
100.006
97.9365
88.6012
48.1754
38.1933
57.538
41.8066
44.5961
37.7866
48.6473
40.1058
9.17037
3.41978
0.861443
-19.806
113.045
-19.816
7.04924
17.4398
-34.0329
-7.07534
-6.51169
361.97
385.439
227.521
328.663
254.157
343.244
220.342
323.811
-1.6074
124.602
248.509
83.8568
203.026
192.368
273.38
249.52
258.535
-14.2641
-90.3151
14.3129
-50.3027
30.8021
6.33097
-5.32619
26.4652
202.658
290.246
195.057
282.196
241.316
284.374
224.792
280.741
6.80148
182.741
208.221
232.708
203.757
189.654
203.41
180.756
192.855
236.566
225.754
227.652
220.77
233.48
225.249
227.061
220.905
119.324
212.492
136.563
180.274
115.913
206.287
133.169
20.1707
19.7076
19.5805
19.3436
20.0034
19.5995
19.3808
19.1979
5.86518
1.89028
9.02262
93.776
143.675
155.304
136.059
220.728
163.4
66.7553
124.566
-2.64541
48.8696
9.09981
195.415
130.157
60.0472
92.763
106.645
113.369
94.2264
91.7128
8.87523
-8.4603
149.129
121.081
44.4551
68.0982
160.533
131.307
68.034
97.1485
34.677
13.6408
6.69932
1.59646
6.46334
0.295854
26.7127
4.2804
-7.89387
3.02011
-13.2941
-30.9945
24.5309
-88.9897
-28.5851
-12.8624
58.7829
-127.422
-133.866
-138.459
-134.528
-121.701
-129.969
-128.624
-127.777
13.942
61.0891
62.3145
60.3294
61.7341
61.2826
62.1825
60.7793
61.6565
35.3436
20.4967
-1.66218
-8.35032
-4.63327
-31.4629
-7.65292
4.65201
3.20949
3.45547
2.30624
18.8669
18.8653
41.6099
-2.80538
-39.4024
-8.43729
-3.74987
3.10462
0.528647
-0.0152869
18.5249
5.67946
18.8689
18.7089
57.3859
-1.7517
3.12051
1.09935
-1.74149
-5.33636
23.8704
1.01663
-30.2055
-70.2594
-20.6416
45.9866
30.1935
-36.8072
-50.8216
-80.1049
-66.0779
-26.1457
-50.802
-61.4827
-67.6958
-41.5988
-6.69189
57.7737
-17.4957
63.4944
11.9951
35.7429
-3.6495
46.6219
11.9157
23.1015
20.5022
17.08
7.70849
19.0754
18.255
-0.870543
0.153424
43.5925
61.7935
1.99239
1.73269
0.895104
-1.73277
3.45329
-1.46584
-1.02307
15.3907
-1.5477
-40.4722
-56.1758
-55.8542
35.8026
-52.2858
-15.6787
-47.541
-32.3829
29.2958
49.4895
0.342994
2.13022
1.09994
0.296035
-0.533729
3.52436
5.66634
1.98828
0.222902
-1.01105
5.93427
55.2341
7.71753
125.014
94.7976
94.5262
86.1973
82.6517
83.4925
66.0343
75.6682
2.95639
48.1622
-0.55768
35.3089
15.235
13.5912
15.1723
13.6721
14.3797
13
13.8968
12.9306
1.84162
-0.912888
-2.17902
-35.7381
1.42771
-8.45144
40.6823
7.15084
33.341
-69.2399
92.2393
273.026
334.15
274.758
365.998
232.946
294.675
289.712
350.124
-39.1181
35.0867
-17.6591
-19.2031
-4.89852
158.584
-36.1816
20.9543
215.258
253.565
167.548
239.98
262.737
253.315
216.948
253.819
-10.5962
129.855
133.835
135.664
128.909
117.137
126.572
103.981
121.261
-16.1012
156.761
151.053
119.705
134.804
118.196
142.957
86.839
126.673
149.69
143.305
144.25
138.818
144.016
139.383
138.592
134.804
73.5427
158.386
88.117
81.3449
51.9797
95.9103
57.7051
2.14022
-2.68915
-3.29367
13.4968
34.4239
26.2329
69.4098
11.9911
22.4605
13.2594
45.9401
0.847906
3.68325
6.48582
-5.38874
41.3076
-3.19142
39.4005
125.984
96.6818
62.326
82.2517
82.9897
66.061
42.1619
62.9149
8.3993
1.19556
-0.281547
4.00813
-4.25558
-6.36573
0.0123987
-5.81504
-1.20678
-7.84354
4.66597
-6.70423
-6.78511
-5.85771
-3.54936
-3.54909
-7.21566
-6.15157
-3.5492
-3.54889
-3.54842
14.271
-9.31346
27.8563
4.90031
63.0873
11.4489
82.959
19.8162
26.5582
-18.737
-47.3586
6.06091
-33.7374
38.7355
-23.1295
54.8924
-11.0766
72.5785
72.3863
72.4058
72.7394
72.739
195.762
129.719
191.58
132.895
204.116
127.308
213.679
140.701
74.3239
72.7902
72.9031
70.5754
72.9948
70.5053
72.82
70.5358
72.9372
70.4932
43.482
1.98195
66.4907
-5.89533
48.8241
35.7703
26.5779
4.47629
26.569
72.3853
72.3816
72.3871
72.3857
155.06
117.813
72.386
72.3855
108.794
94.8473
72.3808
74.3268
74.3081
83.3317
52.3041
50.344
25.4339
91.4749
53.4414
42.5652
17.0878
73.0866
72.3931
72.3902
72.3902
68.6604
74.3215
71.5482
71.5526
68.3674
60.5991
-22.1612
62.6106
-23.319
59.4291
-19.7177
61.7809
-33.6751
-33.6462
-33.0575
-33.4566
-33.1997
-33.1412
-32.5715
-32.9119
67.6037
67.8343
67.4812
67.6146
67.6102
67.8491
67.5084
67.6546
-2.30156
54.8579
2.18805
155.06
78.6381
63.194
33.0088
-72.4671
6.32261
106.827
49.4259
13.6247
25.6162
23.6257
-156.122
-89.8235
38.9934
-50.3236
-117.977
-89.03
-15.7808
-76.3254
46.4293
-14.1235
-14.5025
-68.5968
10.7063
-33.6463
-59.8333
-103.365
71.663
79.0615
36.6233
52.5228
72.0177
82.9142
23.2218
46.9164
65.1224
-28.8821
87.0768
30.9836
-40.8568
-159.377
-9.97273
-112.069
-72.2059
-126.448
-49.675
-130.702
-173.381
-203.408
-173.389
-221.807
-28.1435
-60.1104
-95.1064
-121.346
-26.2844
-56.0032
-83.5271
-109.791
63.1166
78.6093
16.4816
47.1934
56.0985
72.5919
-2.85765
28.9593
-140.81
-225.917
-136.934
-228.03
-148.687
-219.458
-163.093
-240.702
-180.772
-173.124
-208.898
-202.047
-180.311
-172.001
-216.031
-203.36
62.0234
50.7333
41.2301
36.0972
59.3763
48.6268
33.2792
30.1482
65.8458
-168.871
-165.751
-173.75
-177.875
-227.497
-217.571
-242.254
-235.843
-56.1499
-57.6667
-59.5697
-61.0769
-60.451
-60.0599
-63.5654
-62.8448
59.9569
56.0142
53.8261
52.1801
58.5695
55.2354
53.1461
51.9244
70.9758
-159.116
-156.481
-176.83
-170.853
-151.467
-152.496
-168.643
-165.436
-39.4129
-39.262
-41.7494
-41.3867
-39.1942
-38.9805
-41.2216
-40.7396
28.8684
62.465
14.0764
62.3366
66.4026
89.5577
51.8324
90.6965
86.4019
5.15675
63.6871
49.9902
42.6191
72.9953
117.116
66.8876
-0.592726
40.8792
3.64168
35.0427
20.7887
-35.3979
9.8821
-5.92747
-18.9299
-18.762
-15.6031
0.0313676
-36.569
-56.1309
-40.2245
-30.7969
-115.227
-3.49383
-61.1344
-100.249
-145.2
-35.2463
-78.6512
-115.325
-29.6838
-60.1351
-5.30902
-109.032
-5.24777
-54.866
16.6934
4.83925
54.195
9.8311
50.5269
41.5363
85.3089
44.7922
81.6373
79.9085
-0.162338
0.0202916
-0.292333
-0.85939
-1.57491
-0.480672
-0.0860718
-1.04571
-1.97849
-2.81253
1.10964
-0.766416
-0.298153
-7.93051
-3.98006
-27.7497
-6.79979
-20.2128
-11.923
-6.49296
-5.70112
-5.47709
-7.85761
42.6716
34.7099
43.9246
36.8878
47.7225
32.2484
84.302
45.0583
-12.3434
54.1753
52.85
4.86263
34.7175
103.158
65.6661
29.199
44.9992
-5.08885
-83.3279
-146.301
-65.9842
-114.5
-173.932
-205.661
-151.896
-193.847
-7.43204
-48.7982
-90.1891
-118.029
-107.18
-78.8719
-96.2443
-107.181
-102.136
-21.3956
-33.309
-18.5125
-31.2897
-86.2629
-59.6349
-76.8624
-58.5913
-21.5048
-12.9924
-9.08829
-2.39211
-11.4474
-1.51447
-14.5012
-15.2176
-10.8111
-6.54651
-12.0151
-24.5451
-30.2136
-6.92446
-13.8318
-38.8557
-47.2248
7.96038
-28.4056
-29.4756
-14.8645
-8.68064
2.59854
-18.3293
-29.3413
-11.3565
-24.7956
36.7679
15.967
37.7685
37.0219
-3.54829
-4.3295
5.2003
10.6292
37.9192
52.1134
26.4658
26.6438
26.465
26.6404
85.9135
26.6478
143.526
26.6477
32.3139
28.4734
26.8942
49.8968
26.66
106.155
26.6664
72.8462
26.6658
117.465
26.6713
72.6748
72.6689
72.8096
72.8081
114.089
64.7563
72.8113
72.8106
72.8011
368.912
212.428
452.846
335.363
402.026
266.49
515.534
403.382
74.3481
74.346
74.35
74.3479
62.3095
54.3327
71.159
59.9099
72.1739
42.2404
72.8152
72.8155
-74.4677
-73.1926
72.8212
72.8196
72.8197
427.161
387.389
507.637
464.465
409.319
403.239
512.709
490.003
73.0822
-2.95106
156.306
44.7357
62.4226
2.68595
144.77
50.3922
72.8068
72.8076
74.2764
70.749
72.8205
72.8234
74.2557
74.0727
84.7984
59.3875
72.3896
72.6293
75.7623
44.3778
73.4468
56.8115
35.7842
35.1817
26.6194
23.7328
26.6212
26.62
143.895
64.518
26.6138
26.619
-284.062
-60.2782
41.9134
26.5718
26.6803
26.5684
26.6907
103.409
26.6803
-41.0516
26.6862
28.2353
-327.27
26.6908
-326.224
-70.6262
-99.1723
26.6872
-78.1218
14.9374
74.3708
74.3698
74.2848
74.2901
157.775
119.909
74.2664
74.2703
74.2805
160.073
192.015
106.502
124.031
237.936
341.842
174.657
265.534
82.4997
73.9203
80.9178
75.5232
86.2862
74.392
86.1821
75.8859
159.777
126.405
74.2309
74.2309
382.69
328.08
74.1887
74.1925
74.253
274.573
377.003
234.932
338.02
304.647
395.714
285.366
377.52
106.578
72.9949
108.278
74.8562
107.621
74.9007
112.462
76.8564
74.2929
77.6367
77.6367
74.2543
74.2494
77.6365
77.6365
74.5167
53.6068
78.319
53.1472
84.3448
52.5085
62.0017
52.6552
71.7678
66.243
12.2862
-23.7284
13.2611
13.9644
-7.22555
35.8843
-1.89269
49.244
9.10442
13.2148
-34.3545
-50.5663
72.1368
76.1591
27.3275
-7.67581
53.491
61.2414
-79.3935
-83.4685
61.9245
64.0884
-53.1398
-52.82
-66.8156
-137.183
-91.9481
-163.665
12.4572
-81.0597
-17.7244
-116.037
-177.524
-185.103
-208.845
-218.231
-130.572
-141.444
-175.796
-190.479
158.586
194.196
85.3965
59.7428
219.137
263.478
109.734
111.582
89.8943
70.203
8.99945
5.73449
113.301
82.0095
66.1312
55.9353
67.9255
-20.3107
16.4724
-86.1687
74.4037
15.608
-1.60953
-74.0898
-68.167
-83.3459
-138.621
-149.691
-19.7543
-37.7161
-106.729
-113.65
53.2808
53.5674
-108.913
-108.907
-113.825
-111.896
-105.447
-107.359
-110.114
-109.896
14.2435
57.0426
54.5936
-59.7664
44.5635
108.683
108.541
108.528
108.287
108.953
108.758
108.793
108.52
89.3809
18.6569
19.5896
8.14123
38.3771
7.60311
-18.6001
8.01538
12.6146
-106.415
-147.74
-30.5696
-80.274
-123.332
-143.762
-36.4499
-78.1968
-77.1215
33.2067
-32.0283
50.91
-46.7866
64.0675
-10.7585
79.6088
72.6226
104.86
76.0633
99.727
92.76
112.757
97.3833
109.588
89.9097
-0.536593
-1.17586
-1.36556
-1.89337
-2.559
-4.6648
-4.70654
-3.75766
-4.07817
-4.53558
-4.82529
-70.2231
-12.6759
-64.7606
-12.9223
-64.7665
-22.3897
-133.133
-122.612
-123.639
-120.028
-125.537
-122.121
-97.6708
-118.966
-37.4175
-31.3933
-39.5209
-33.161
-36.2914
-31.3787
-40.3849
-33.6273
-13.675
-10.0999
-8.46897
22.1643
-44.9021
-4.76811
-4.2047
26.6563
-51.1407
-48.1233
-31.3195
-220.038
-231.528
-200.507
-226.262
-230.337
-240.106
-219.273
-232.665
-4.53044
-23.658
-33.6721
-1.7608
2.23725
-19.4932
-44.4497
-5.50653
-209.819
-216.967
-249.157
-229.587
-197.484
-206.193
-184.674
-195.411
11.8693
-60.2263
19.9651
-65.4519
-28.2543
61.8319
-56.9889
-123.78
-275.039
-343.458
-269.717
-333.434
-294.759
-366.773
-304.975
-355.741
-14.9208
-38.4009
-32.9644
-3.0994
7.26107
-80.0835
-18.426
-29.3543
-248.619
-295.189
-219.21
-242.588
-288.804
-318.545
-272.825
-267.225
-159.295
-124.409
-138.398
-124.688
-192.104
-188.823
-183.162
-183.159
-191.711
-188.338
-183.551
-182.931
-135.041
-166.958
-144.689
-40.6746
-40.3059
-40.7065
-40.4704
-40.5599
-40.1609
-40.3985
-40.2018
-21.3095
-13.8281
-25.1841
-13.0923
-22.0736
-14.3969
-25.3724
-15.3646
-20.0502
-20.6484
-24.0923
-15.8991
-23.9449
-51.4543
8.29019
-12.8015
4.72528
-11.9269
25.4211
1.11152
34.7019
6.38496
-22.5909
-27.1502
-63.011
-64.0323
-63.5812
-64.9121
-59.3505
-62.3197
-60.1706
-62.8496
-47.5166
-25.8379
-15.1209
4.38151
-11.5977
-19.986
-16.2784
-9.23282
-56.468
-58.6032
-55.1058
-52.0856
-7.52839
-6.95416
-7.54556
-7.02004
-6.33233
-6.10441
-6.17072
-6.07555
-4.71215
-3.9596
25.4399
20.605
20.3758
83.001
26.6656
128.955
26.671
126.397
26.6556
209.154
26.6599
19.2458
53.5549
22.7191
143.995
26.6466
227.863
26.6479
130.337
26.6384
171.675
26.6391
-70.0922
-65.5469
72.828
72.8256
-39.9731
-40.8209
72.8329
72.8319
72.8286
400.028
398.504
497.405
480.37
413.237
403.785
508.564
479.169
63.9034
14.5141
142.26
61.2902
82.7403
33.2841
158.795
78.7523
87.1264
75.6449
72.8369
72.8388
106.022
88.7297
72.8375
72.8393
72.8357
267.795
173.694
422.311
296.571
338.153
197.486
487.148
313.751
79.1857
72.8335
72.8317
74.184
74.7843
72.8385
72.8403
74.1359
69.8487
79.9163
-24.3231
83.3427
-8.7436
76.7042
-49.6047
80.8378
-39.2688
18.6879
18.3681
123.969
26.6738
30.6789
26.6748
255.58
26.6631
135.558
26.6597
-17.4414
-12.735
26.6772
3.3965
70.373
17.4015
26.6584
21.3779
99.6899
19.2155
26.6432
-24.9812
26.6417
26.6449
1.99129
112.569
26.6399
26.6447
-9.10628
112.241
399.833
331.755
74.1528
74.1538
417.218
345.186
74.1202
74.1293
74.3739
74.3728
74.1547
74.1554
97.3669
74.542
74.1394
74.1457
344.069
407.327
327.559
398.945
419.998
489.757
395.126
482.583
123.327
84.4365
139.217
92.4547
354.663
233.399
365.161
251.19
177.711
134.07
74.1047
74.1189
175.374
137.239
74.0909
74.1044
97.058
83.7339
74.1267
74.1315
106.388
146.909
74.1183
74.13
503.529
573.243
466.959
557.801
495.176
560.54
507.273
569.744
464.301
343.188
466.778
349.615
459.728
341.581
469.755
348.928
74.1908
48.4003
48.4003
48.4002
50.8775
47.2623
48.4006
48.4003
56.4229
49.6902
137.39
74.1461
48.9485
48.9582
48.9526
151.031
73.9782
48.9584
48.9527
148.32
73.7067
46.7664
47.3138
-8.13035
76.5765
20.232
43.3699
-33.0917
43.3651
-6.28976
43.0357
-12.8512
-45.4389
24.5509
-34.6332
9.48253
-27.361
31.011
-99.3114
-15.462
-14.7613
14.821
-21.9818
-45.0163
53.5974
-150.085
-35.9507
-6.73241
72.0387
-67.4301
-20.3834
-3.78637
-39.1343
233.89
308.27
97.8688
136.193
269.724
354.122
93.461
151.607
214.362
174.707
121.654
114.467
293.334
227.894
154.218
143.997
45.5109
21.3904
-31.5175
-74.319
18.1112
15.06
-50.689
-84.157
7.31978
-3.94114
-84.2655
-80.1181
17.6359
11.0864
-80.1177
-68.6444
306.945
396.921
98.6183
165.765
335.575
398.543
100.47
156.761
341.278
266.287
169.19
150.507
328.973
256.839
160.225
144.701
-11.2874
5.78709
-87.5457
-101.548
-47.026
-19.2957
-144.541
-132.131
15.1722
11.1005
-88.4394
-72.1517
-1.52155
-0.957072
-105.006
-82.2931
147.285
121.307
126.856
114.613
168.396
139.313
146.745
132.147
139.975
-11.7833
67.7552
63.9533
56.4891
59.5155
54.9064
63.036
56.616
58.5233
54.6499
46.9881
-18.5426
42.9523
80.4046
70.0069
77.8802
91.2507
60.332
41.7368
48.1704
61.4226
66.2886
5.71917
-92.6188
-68.6217
-35.2271
-34.8262
-89.1817
-70.2691
-51.4102
-47.3419
-19.0438
62.9773
8.13367
77.6073
-22.1548
44.5478
-0.081223
58.8744
83.6122
96.4998
93.787
100.994
61.5045
73.9282
72.9995
79.2687
72.5312
-0.310023
-0.787407
-1.93516
-2.68599
-3.33048
-2.78266
-6.30823
-5.80543
-5.82528
-5.87634
-11.277
-37.7891
-22.2226
-33.3424
-2.43769
-51.9928
-7.34898
-55.599
-31.4973
-17.9592
-12.9599
-10.3206
-18.6774
-108.991
-149.843
-133.739
-139.449
-189.237
-174.44
-136.367
-156.665
-31.9864
-103.028
-98.7919
-90.0214
-88.4472
-87.1828
-105.211
-91.3146
-100.801
-0.127183
-232.313
-180.763
-138.335
-158.478
-297.184
-202.372
-150.41
-166.15
-3.33166
-127.256
-152.442
-170.505
-160.839
-156.594
-163.04
-253.849
-182.514
-96.4065
-86.0205
-91.261
-82.686
-96.6658
-81.2959
-89.8109
-75.0336
-38.9131
-23.0353
-15.4172
-33.533
-13.8902
-13.9245
-14.2846
-9.20505
-45.263
-2.66704
-46.368
-52.4659
-37.6313
-24.8118
-16.2159
0.603759
-5.86512
-5.76063
-3.39219
-4.92978
-7.0566
-5.20803
-3.4566
-4.53385
-4.31677
-5.42493
-8.72044
11.7143
69.4994
29.3873
26.6309
6.83751
71.6252
19.6361
26.629
72.8365
72.839
189.462
141.84
191.794
147.69
74.0489
74.0568
74.049
74.0553
74.1016
72.8361
72.8395
38.9251
58.4444
72.8453
72.8499
74.1132
78.6771
72.8499
79.8136
78.6771
75.8261
-12.2728
-13.4828
-14.1669
-15.3916
-10.4003
-12.4588
-13.3502
-14.8446
4.93323
17.8694
26.6344
-8.50299
26.6305
26.6349
-35.393
108.539
26.6347
26.6367
31.7682
128.629
37.46
26.639
26.6359
26.63
26.6312
38.1309
79.4577
-75.1335
52.9495
15.4765
14.0492
-25.2773
10.7361
18.0331
-95.4397
-7.45594
-9.17489
70.0309
176.343
89.3431
174.396
-13.4414
148.826
50.6634
140.483
74.0924
74.0968
50.6018
50.5872
453.854
461.68
50.5976
50.5824
403.001
378.374
48.1583
48.1483
318.188
205.333
48.1511
48.1428
239.719
141.979
50.5771
50.5562
50.5835
50.5627
-107.944
-159.699
85.5194
-33.4054
48.1508
48.1495
48.1497
48.149
71.5397
64.5639
69.2056
63.287
144.289
136.119
159.945
139.858
119.907
115.103
106.094
108.273
49.9622
74.1124
52.223
52.223
48.4315
52.223
47.3156
47.8113
46.5258
-4.72303
21.2506
-24.1015
-34.8641
87.9794
-3.38778
25.9781
83.3867
112.244
141.605
81.8102
-1.92093
-26.438
-9.53643
21.7095
-0.889784
28.5831
344.431
340.691
117.775
133.584
295.052
268.101
111.315
101.763
122.098
83.2119
72.9317
62.9141
96.3525
72.032
63.7788
58.8225
-38.8722
-33.3187
-148.171
-139.123
-16.7816
-37.8709
-117.907
-129.242
-35.8002
-32.0082
-117.051
-92.5022
-48.2924
-48.2969
-117.116
-99.1124
71.6361
56.6707
34.1126
28.5573
18.6257
29.3562
8.33493
17.5281
49.775
-19.0478
-53.9454
-87.7166
-114.223
-14.4039
-46.9003
-42.7084
-77.3639
-84.0278
-0.858077
-7.52902
-5.89265
-9.32516
-6.44934
-9.94244
-8.98607
-11.9467
32.2731
35.8073
6.14695
-68.5305
-51.8373
-58.4433
-40.212
-57.8908
-50.0455
-51.183
-42.4769
-16.5946
35.2317
43.2532
0.000851778
1.96043
-1.3762
-2.73471
-3.44465
0.0596697
-3.88325
-6.14429
-6.24975
-6.05464
-0.532041
-19.5956
-15.2948
-11.8604
-9.57793
5.66867
-13.0516
0.16506
-9.91234
-0.305234
-12.87
-0.0393695
-1.76426
-23.9742
-19.2099
-15.5735
-11.9936
-0.394926
-9.97603
-13.3911
-13.4299
-10.7346
0.109593
-2.63783
-2.62986
-9.47558
-6.19977
-0.552338
38.5098
16.2966
28.9819
-0.806637
24.4685
5.99552
36.6818
31.0001
73.7669
45.604
23.8162
29.8287
17.6046
20.9213
7.36097
16.8145
5.93952
76.5601
64.931
75.8858
65.7704
65.8726
57.5077
66.9746
59.0189
52.8973
80.0866
40.7154
29.9523
49.8727
33.5636
28.6928
18.8023
53.5465
28.8401
68.0278
61.8089
70.2118
63.1838
58.9135
54.4296
64.2164
57.6852
-10.2057
-8.65623
-18.2809
-13.5065
-8.96326
-9.41404
-15.1836
-13.2273
-6.0874
0.430606
33.299
-29.145
-43.2565
-172.553
-76.814
60.6931
-28.32
-23.7419
-56.085
25.5837
-87.0396
-3.36163
-33.4052
-9.10773
-28.9579
-3.17488
-71.7292
-33.425
8.15768
184.703
122.488
67.0894
84.6637
342.464
182.816
78.7206
125.792
7.04671
76.2125
100.384
87.6871
95.111
44.4682
109.194
138.39
120.634
-576.434
-548.924
-367.551
-430.016
-679.906
-608.953
-508.898
-506.648
-204.078
-96.3641
-149.343
-71.2483
-227.468
-110.872
-179.483
-91.6017
-96.9405
-159.546
7.88366
-42.2431
-195.54
-225.514
-72.3354
-112.12
-61.5622
-32.0253
-11.7191
-2.18743
-93.2048
-53.9433
-50.315
-30.3373
-626.158
-595.223
-410.432
-485.577
-357.507
-438.645
-88.6128
-314.455
-387.713
-314.493
-336.284
-292.805
-301.269
-268.012
-252.222
-247.553
-101.673
-208.96
-6.99145
-111.126
105.391
-83.9839
78.0539
-50.7038
-219.737
-217.139
-167.136
-180.93
-157.135
-181.306
-135.535
-160.866
-13.5257
-9.30176
-11.1445
-10.3391
-16.1967
-19.2638
-13.1921
-16.2704
-19.1067
-22.3108
-14.2056
-17.9946
-8.33154
-7.47019
-8.95358
-8.03362
-9.44323
-8.59648
-10.2928
-9.27075
-10.8499
-9.25869
-1.7584
8.6905
11.3418
-16.2562
3.11304
-1.27413
-3.87488
37.8681
72.7622
-82.1237
40.1618
225.532
128.054
153.273
108.304
0.39699
41.118
-0.351162
-66.2365
-21.4017
-68.0505
7.60341
-10.6694
-24.7973
-7.25697
37.8846