# vtk DataFile Version 3.0
Gravity inversion using rectangular prisms
ASCII
DATASET UNSTRUCTURED_GRID

POINTS	2379	double
0	0	0
0	0	200
0	0	400
0	0	600
0	0	800
0	0	1000
0	200	0
0	200	200
0	200	400
0	200	600
0	200	800
0	200	1000
0	400	0
0	400	200
0	400	400
0	400	600
0	400	800
0	400	1000
0	600	0
0	600	200
0	600	400
0	600	600
0	600	800
0	600	1000
0	800	0
0	800	200
0	800	400
0	800	600
0	800	800
0	800	1000
0	1000	0
0	1000	200
0	1000	400
0	1000	600
0	1000	800
0	1000	1000
0	1200	0
0	1200	200
0	1200	400
0	1200	600
0	1200	800
0	1200	1000
0	1400	0
0	1400	200
0	1400	400
0	1400	600
0	1400	800
0	1400	1000
0	1600	0
0	1600	200
0	1600	400
0	1600	600
0	1600	800
0	1600	1000
0	1800	0
0	1800	200
0	1800	400
0	1800	600
0	1800	800
0	1800	1000
0	2000	0
0	2000	200
0	2000	400
0	2000	600
0	2000	800
0	2000	1000
200	0	0
200	0	200
200	0	400
200	0	600
200	0	800
200	0	1000
200	200	0
200	200	200
200	200	400
200	200	600
200	200	800
200	200	1000
200	400	0
200	400	200
200	400	400
200	400	600
200	400	800
200	400	1000
200	600	0
200	600	200
200	600	400
200	600	600
200	600	800
200	600	1000
200	800	0
200	800	200
200	800	400
200	800	600
200	800	800
200	800	1000
200	1000	0
200	1000	200
200	1000	400
200	1000	600
200	1000	800
200	1000	1000
200	1200	0
200	1200	200
200	1200	400
200	1200	600
200	1200	800
200	1200	1000
200	1400	0
200	1400	200
200	1400	400
200	1400	600
200	1400	800
200	1400	1000
200	1600	0
200	1600	200
200	1600	400
200	1600	600
200	1600	800
200	1600	1000
200	1800	0
200	1800	200
200	1800	400
200	1800	600
200	1800	800
200	1800	1000
200	2000	0
200	2000	200
200	2000	400
200	2000	600
200	2000	800
200	2000	1000
400	0	0
400	0	200
400	0	400
400	0	600
400	0	800
400	0	1000
400	200	0
400	200	200
400	200	400
400	200	600
400	200	800
400	200	1000
400	400	0
400	400	200
400	400	300
400	400	400
400	400	600
400	400	800
400	400	1000
400	500	200
400	500	300
400	500	400
400	600	0
400	600	100
400	600	200
400	600	300
400	600	400
400	600	600
400	600	800
400	600	1000
400	700	0
400	700	100
400	700	200
400	700	300
400	700	400
400	800	0
400	800	100
400	800	200
400	800	300
400	800	400
400	800	600
400	800	800
400	800	1000
400	900	200
400	900	300
400	900	400
400	1000	0
400	1000	200
400	1000	300
400	1000	400
400	1000	600
400	1000	800
400	1000	1000
400	1200	0
400	1200	200
400	1200	400
400	1200	600
400	1200	800
400	1200	1000
400	1400	0
400	1400	200
400	1400	400
400	1400	600
400	1400	800
400	1400	1000
400	1600	0
400	1600	200
400	1600	400
400	1600	600
400	1600	800
400	1600	1000
400	1800	0
400	1800	200
400	1800	400
400	1800	600
400	1800	800
400	1800	1000
400	2000	0
400	2000	200
400	2000	400
400	2000	600
400	2000	800
400	2000	1000
500	400	200
500	400	300
500	400	400
500	500	200
500	500	300
500	500	400
500	600	0
500	600	100
500	600	200
500	600	250
500	600	300
500	600	400
500	650	200
500	650	250
500	650	300
500	700	0
500	700	100
500	700	200
500	700	250
500	700	300
500	700	400
500	750	200
500	750	250
500	750	300
500	800	0
500	800	100
500	800	200
500	800	250
500	800	300
500	800	400
500	900	200
500	900	300
500	900	400
500	1000	200
500	1000	300
500	1000	400
550	600	200
550	600	250
550	600	300
550	650	200
550	650	250
550	650	300
550	700	200
550	700	250
550	700	300
550	750	200
550	750	250
550	750	300
550	800	200
550	800	250
550	800	300
600	0	0
600	0	200
600	0	400
600	0	600
600	0	800
600	0	1000
600	200	0
600	200	200
600	200	400
600	200	600
600	200	800
600	200	1000
600	400	0
600	400	100
600	400	200
600	400	300
600	400	400
600	400	600
600	400	800
600	400	1000
600	500	0
600	500	100
600	500	200
600	500	300
600	500	400
600	600	0
600	600	100
600	600	150
600	600	200
600	600	250
600	600	300
600	600	400
600	600	500
600	600	600
600	600	800
600	600	1000
600	650	100
600	650	150
600	650	200
600	650	250
600	650	300
600	700	0
600	700	100
600	700	150
600	700	200
600	700	250
600	700	300
600	700	400
600	700	500
600	700	600
600	750	100
600	750	150
600	750	200
600	750	250
600	750	300
600	800	0
600	800	100
600	800	150
600	800	200
600	800	250
600	800	300
600	800	400
600	800	500
600	800	600
600	800	800
600	800	1000
600	850	200
600	850	250
600	850	300
600	900	0
600	900	100
600	900	200
600	900	250
600	900	300
600	900	400
600	1000	0
600	1000	100
600	1000	200
600	1000	300
600	1000	400
600	1000	600
600	1000	800
600	1000	1000
600	1200	0
600	1200	200
600	1200	300
600	1200	400
600	1200	600
600	1200	800
600	1200	1000
600	1300	200
600	1300	300
600	1300	400
600	1400	0
600	1400	200
600	1400	300
600	1400	400
600	1400	600
600	1400	800
600	1400	1000
600	1500	200
600	1500	300
600	1500	400
600	1600	0
600	1600	200
600	1600	300
600	1600	400
600	1600	600
600	1600	800
600	1600	1000
600	1700	200
600	1700	300
600	1700	400
600	1800	0
600	1800	200
600	1800	300
600	1800	400
600	1800	600
600	1800	800
600	1800	1000
600	2000	0
600	2000	200
600	2000	400
600	2000	600
600	2000	800
600	2000	1000
650	600	100
650	600	150
650	600	200
650	650	100
650	650	150
650	650	200
650	700	100
650	700	150
650	700	200
650	750	100
650	750	150
650	750	200
650	800	100
650	800	150
650	800	200
650	800	250
650	800	300
650	850	200
650	850	250
650	850	300
650	900	200
650	900	250
650	900	300
700	400	0
700	400	100
700	400	200
700	400	300
700	400	400
700	500	0
700	500	100
700	500	200
700	500	300
700	500	400
700	600	0
700	600	100
700	600	150
700	600	200
700	600	300
700	600	400
700	600	500
700	600	600
700	650	100
700	650	150
700	650	200
700	700	0
700	700	100
700	700	150
700	700	200
700	700	300
700	700	400
700	700	500
700	700	600
700	750	100
700	750	150
700	750	200
700	800	0
700	800	100
700	800	150
700	800	200
700	800	250
700	800	300
700	800	400
700	800	500
700	800	600
700	850	200
700	850	250
700	850	300
700	900	0
700	900	100
700	900	200
700	900	250
700	900	300
700	900	400
700	1000	0
700	1000	100
700	1000	200
700	1000	300
700	1000	400
700	1200	200
700	1200	300
700	1200	400
700	1300	200
700	1300	300
700	1300	400
700	1400	200
700	1400	300
700	1400	400
700	1500	200
700	1500	300
700	1500	400
700	1600	200
700	1600	300
700	1600	400
700	1700	200
700	1700	300
700	1700	400
700	1800	200
700	1800	300
700	1800	400
750	600	100
750	600	150
750	600	200
750	650	100
750	650	150
750	650	200
750	700	100
750	700	150
750	700	200
750	750	100
750	750	150
750	750	200
750	800	100
750	800	150
750	800	200
750	800	250
750	800	300
750	850	200
750	850	250
750	850	300
750	900	200
750	900	250
750	900	300
800	0	0
800	0	200
800	0	400
800	0	600
800	0	800
800	0	1000
800	200	0
800	200	200
800	200	400
800	200	600
800	200	800
800	200	1000
800	400	0
800	400	100
800	400	200
800	400	300
800	400	400
800	400	600
800	400	800
800	400	1000
800	500	0
800	500	100
800	500	200
800	500	300
800	500	400
800	600	0
800	600	100
800	600	150
800	600	200
800	600	300
800	600	400
800	600	500
800	600	600
800	600	800
800	600	1000
800	650	100
800	650	150
800	650	200
800	700	0
800	700	100
800	700	150
800	700	200
800	700	300
800	700	400
800	700	500
800	700	600
800	750	100
800	750	150
800	750	200
800	800	0
800	800	100
800	800	150
800	800	200
800	800	250
800	800	300
800	800	400
800	800	500
800	800	600
800	800	800
800	800	1000
800	850	200
800	850	250
800	850	300
800	900	0
800	900	100
800	900	200
800	900	250
800	900	300
800	900	400
800	900	500
800	900	600
800	1000	0
800	1000	100
800	1000	200
800	1000	300
800	1000	400
800	1000	500
800	1000	600
800	1000	800
800	1000	1000
800	1100	200
800	1100	300
800	1100	400
800	1200	0
800	1200	100
800	1200	200
800	1200	250
800	1200	300
800	1200	400
800	1200	500
800	1200	600
800	1200	800
800	1200	1000
800	1250	200
800	1250	250
800	1250	300
800	1300	0
800	1300	100
800	1300	200
800	1300	250
800	1300	300
800	1300	400
800	1300	500
800	1300	600
800	1350	200
800	1350	250
800	1350	300
800	1400	0
800	1400	100
800	1400	200
800	1400	250
800	1400	300
800	1400	400
800	1400	500
800	1400	600
800	1400	800
800	1400	1000
800	1500	200
800	1500	300
800	1500	400
800	1500	500
800	1500	600
800	1600	0
800	1600	200
800	1600	300
800	1600	400
800	1600	500
800	1600	600
800	1600	800
800	1600	1000
800	1700	200
800	1700	300
800	1700	400
800	1800	0
800	1800	200
800	1800	300
800	1800	400
800	1800	600
800	1800	800
800	1800	1000
800	1900	200
800	1900	300
800	1900	400
800	2000	0
800	2000	200
800	2000	300
800	2000	400
800	2000	600
800	2000	800
800	2000	1000
850	600	100
850	600	150
850	600	200
850	650	100
850	650	150
850	650	200
850	700	100
850	700	150
850	700	200
850	750	100
850	750	150
850	750	200
850	800	100
850	800	150
850	800	200
850	1200	200
850	1200	250
850	1200	300
850	1250	200
850	1250	250
850	1250	300
850	1300	200
850	1300	250
850	1300	300
850	1350	200
850	1350	250
850	1350	300
850	1400	200
850	1400	250
850	1400	300
900	400	0
900	400	100
900	400	200
900	400	300
900	400	400
900	500	0
900	500	100
900	500	200
900	500	300
900	500	400
900	600	0
900	600	100
900	600	150
900	600	200
900	600	300
900	600	400
900	600	500
900	600	600
900	650	100
900	650	150
900	650	200
900	700	0
900	700	100
900	700	150
900	700	200
900	700	300
900	700	400
900	700	500
900	700	600
900	750	100
900	750	150
900	750	200
900	800	0
900	800	100
900	800	150
900	800	200
900	800	300
900	800	400
900	800	500
900	800	600
900	900	0
900	900	100
900	900	200
900	900	300
900	900	400
900	900	500
900	900	600
900	1000	0
900	1000	100
900	1000	200
900	1000	300
900	1000	400
900	1000	500
900	1000	600
900	1100	200
900	1100	300
900	1100	400
900	1200	0
900	1200	100
900	1200	200
900	1200	250
900	1200	300
900	1200	400
900	1200	500
900	1200	600
900	1250	200
900	1250	250
900	1250	300
900	1300	0
900	1300	100
900	1300	200
900	1300	250
900	1300	300
900	1300	400
900	1300	500
900	1300	600
900	1350	200
900	1350	250
900	1350	300
900	1400	0
900	1400	100
900	1400	200
900	1400	250
900	1400	300
900	1400	400
900	1400	500
900	1400	600
900	1500	200
900	1500	300
900	1500	400
900	1500	500
900	1500	600
900	1600	200
900	1600	300
900	1600	400
900	1600	500
900	1600	600
900	1700	200
900	1700	300
900	1700	400
900	1800	200
900	1800	300
900	1800	400
900	1900	200
900	1900	300
900	1900	400
900	2000	200
900	2000	300
900	2000	400
950	1200	200
950	1200	250
950	1200	300
950	1250	200
950	1250	250
950	1250	300
950	1300	200
950	1300	250
950	1300	300
950	1350	200
950	1350	250
950	1350	300
950	1400	200
950	1400	250
950	1400	300
[...]
CELL_DATA	1501
SCALARS density double 1
LOOKUP_TABLE table0
0.0126728
3.14995
-12.7136
-9.29088
-5.83264
0.271257
0.423962
-10.61
-6.42942
-3.53704
-0.0339822
2.30192
-8.425
-3.64024
-1.12468
0.0984697
0.0666616
-8.56366
-3.10523
0.15797
0.496186
-6.2679
-14.2748
-6.23989
-1.05221
-0.872709
1.00893
-10.4876
-7.2011
-3.32054
-0.656509
1.52846
-4.1587
-5.13788
-4.58211
0.351163
-8.75734
-4.66047
-3.88423
-5.71434
-0.231205
6.70378
2.0747
-4.55859
-9.87495
0.0922309
-1.24998
-5.31307
-10.1454
-13.9826
-0.298635
2.96389
-3.64137
-1.15721
-0.419882
-0.0367264
-0.633237
0.840116
2.56807
2.13471
0.814556
-13.613
5.80614
7.46365
5.34588
0.190184
0.848631
11.4546
11.6606
8.44775
1.14878
-5.12558
3.86999
9.95285
9.53465
-0.453222
4.10666
-1.67853
4.98302
7.8166
-1.45547
3.42073
-1.60636
2.37026
4.92903
-0.546272
0.954904
-4.0239
-1.1623
0.394887
0.0993451
-5.63427
-5.58612
-6.63698
-8.13112
-0.0609246
-0.594381
-6.57171
-10.1345
-12.329
-0.41518
-4.7633
1.04036
1.52328
1.16901
-1.20528
0.667822
7.99547
5.41966
3.37513
-2.18379
16.7768
30.4137
30.8022
33.3665
35.314
33.572
58.2869
38.3016
25.8425
11.9158
6.40223
-6.24192
11.6311
5.80692
-0.0313806
-1.78158
147.933
8.80697
15.0879
10.9867
33.0238
7.79049
29.9237
98.0583
99.5011
93.3664
109.843
191.813
199.023
177.232
207.501
102.836
48.9522
87.2394
21.6279
43.9667
108.437
167.844
61.6021
105.948
106.939
52.066
20.3163
10.0066
6.32907
-17.6353
8.15002
-73.0824
-4.67321
23.6467
15.1898
-0.284553
6.63637
40.707
23.4435
12.9629
2.06908
-29.7568
9.25514
18.2476
14.4496
-0.432483
-7.70075
-3.08927
13.0275
15.6719
-0.61616
-2.67159
-8.10541
3.60551
11.8784
-0.647186
1.84743
-9.93756
-5.1069
-0.0178194
-0.573308
5.40509
-6.25814
-7.55542
-5.73633
-0.740793
1.62488
1.95118
1.53783
1.00257
-1.92108
14.2821
7.69073
4.20788
2.18303
-7.17923
64.1796
3.96641
99.1125
0.0455815
51.7856
19.3984
53.4168
74.2674
67.5493
145.032
95.6873
91.4627
74.6077
136.596
95.1296
22.7837
8.60414
3.59408
16.2989
116.187
174.345
78.846
152.059
94.9161
151.021
94.3006
136.62
20.9529
34.7813
102.362
11.8051
81.4538
84.6418
116.971
74.1794
119.464
24.7218
86.7335
142.549
103.577
153.134
94.3284
159.015
110.839
166.49
32.0397
108.178
133.033
91.7765
124.781
108.435
138.649
75.7214
111.912
265.529
188.578
253.445
194.435
254.703
193.581
270.418
203.62
72.54
53.5692
82.6324
58.2499
70.5366
54.6663
79.9812
58.8189
15.3018
5.31588
21.2013
75.7799
0.0694248
56.3188
25.4974
56.2173
6.93028
7.3199
97.1673
131.798
42.8368
54.8103
134.156
190.421
69.0017
100.178
128.745
31.7949
46.5427
134.213
195.771
72.1931
113.578
125.045
187.49
72.8687
117.409
144.547
53.3869
80.7948
67.7985
21.1907
7.63
0.469976
-8.18291
34.6109
25.9555
12.7098
-0.265652
-11.0329
-12.5232
-25.5304
-17.1239
-44.2138
-11.2423
-20.4621
-7.58199
4.87396
5.50133
23.6952
0.637818
-35.9154
-33.4768
24.1162
-23.301
-51.7558
-30.6338
-64.1749
-45.0367
3.9425
4.07163
24.8259
0.146326
19.8795
-28.5085
3.54325
-38.5925
-65.6553
-52.6416
38.5608
-24.1897
2.23374
-0.810985
14.4067
-0.261905
-15.0082
-18.9172
-6.33709
4.79435
-0.775523
1.77605
1.25632
0.816029
0.319514
-0.467398
9.37288
3.73576
1.44943
0.0824166
2.27708
28.291
15.7503
31.3607
2.97855
16.6035
-1.64022
11.387
57.1226
37.8171
89.8426
52.5053
50.486
34.1053
72.0342
41.8833
7.55943
1.24234
-1.10509
19.6619
79.4232
168.445
112.927
179.587
86.5877
173.401
121.072
195.734
16.5426
104.088
143.313
63.6706
85.4163
114.026
161.233
84.6908
83.1163
-5.13057
123.124
-11.3046
108.721
196.096
143.957
219.886
156.858
150.142
122.585
160.294
127.494
31.4976
19.6426
40.51
23.6757
22.6096
16.0776
28.6475
18.5136
0.439854
-3.17913
17.885
12.7513
7.30099
-5.38336
1.82922
-27.5728
1.17788
-27.2447
151.8
123.581
48.4667
82.9542
115.07
101.388
52.4621
83.6658
50.6684
35.3377
47.3198
36.4062
40.9691
30.6674
43.0477
33.6756
2.40799
-3.83607
-4.67906
-30.8298
17.0273
-76.0382
5.67542
11.6015
39.7249
44.6474
53.8005
32.1103
31.9811
4.172
-3.77181
-76.6297
4.09789
66.6474
-1.8993
69.7035
17.8457
8.10698
-70.7073
11.2061
-44.5001
29.056
-22.4
85.2431
9.49664
87.2776
100.816
29.8365
56.3275
75.9027
30.1667
103.857
103.837
103.852
103.834
103.778
71.9571
103.035
108.608
108.602
120.256
145.197
108.588
108.583
108.555
170.585
256.29
209.814
290.455
251.304
374.833
295.821
446.269
155.934
103.788
102.066
103.707
103.708
108.529
108.538
112.089
110.209
62.1895
26.3509
8.11883
103.817
103.749
103.818
103.75
112.069
112.038
94.0042
115.611
103.67
103.646
103.646
101.076
112.065
105.062
105.063
113.963
32.0979
36.8729
1.48475
-155.235
5.34995
3.00291
32.2857
-138.798
30.2691
-91.4973
8.30274
31.6702
14.6949
31.0517
0.821185
77.1736
-13.649
20.2413
-46.059
-29.7544
-40.016
-62.8201
-52.8258
-22.7342
2.19569
17.7228
-0.107919
0.497902
0.417275
0.0821361
-0.379068
-0.177237
0.0747331
-0.674938
-1.46441
-2.12171
-0.363757
0.660986
-3.03762
-4.96701
-3.77309
-8.25102
-10.5158
-9.89374
-22.9734
-23.2373
-23.1046
-23.2742
-23.8568
-22.5206
-24.935
-23.2445
-9.68975
-7.03935
-6.18495
-12.7474
57.3425
46.7635
26.462
50.4455
54.8383
6.75631
38.0809
19.8308
-14.4552
57.3909
-14.758
43.1831
-76.4832
14.6302
-68.8427
-31.8874
-142.01
-55.9662
-135.824
-14.7914
6.99214
-55.9704
-95.6352
-83.3243
-67.2083
-106.411
-67.2087
-88.8106
-41.4646
-56.5481
-20.9528
-47.8228
-125.167
-86.5502
-100.166
-81.5685
-31.475
-17.9494
-12.6661
-4.33887
-26.4431
-5.07542
-28.5536
-14.8373
-13.8397
-11.1425
-16.0805
-1.316
-10.983
0.315265
1.25476
-31.6135
-28.7507
12.1029
-6.59653
-32.6443
-22.867
-16.8722
-9.21346
29.3282
35.7567
57.3945
55.0626
39.9439
32.1377
31.076
38.706
21.6874
12.5625
36.5115
25.0985
26.0104
20.3635
38.9867
34.3778
21.5732
-8.01128
-15.6399
48.0772
39.3225
1.23926
11.7149
7.75938
11.7077
73.6406
11.7159
141.278
11.7094
0.429667
94.0002
25.2642
26.2489
11.711
126.104
11.7082
90.7963
11.698
82.1381
11.6968
137.86
147.992
108.545
108.537
120.747
118.128
108.495
108.492
108.47
281.355
400.789
328.772
500.99
270.552
360.468
323.845
468.093
344.874
210.434
424.517
285.682
336.035
228.554
416.303
302.737
108.366
108.359
242.089
331.311
289.677
408.922
189.525
275.133
242.731
346.841
284.451
218.096
361.677
277.925
261.582
224.776
322.457
274.235
108.473
108.485
112.082
162.135
168.471
160.099
169.227
184.729
191.396
182.856
191.882
108.36
108.369
112.088
153.247
41.18
41.186
44.2339
42.1411
40.8989
41.2392
43.1174
42.0636
13.3364
24.7081
11.6679
-3.32044
11.6103
41.3118
11.6937
9.37522
11.7014
112.071
112.079
267.67
163.864
112.016
112.057
174.862
302.709
179.61
293.947
174.119
302.822
169.772
296.18
331.371
238.303
340.505
271.132
353.782
285.173
365.426
312.794
112.082
107.159
155.107
107.226
172.288
107.171
154.512
107.253
172.515
107.116
107.226
194.866
187.058
107.175
107.291
192.83
192.56
108.808
141.91
124.829
131.231
136.006
167.308
152.486
160.309
112.084
94.1558
94.1558
191.246
193.523
186.682
192.668
151.699
151.849
150.555
153.733
39.4299
37.2664
43.0557
37.9023
38.9027
37.3929
41.2304
38.1434
36.5489
-5.73988
-21.7908
-3.70384
11.7122
-16.3137
60.0959
-1.05301
-33.6148
46.682
65.2147
-21.0684
-33.6744
-0.724813
-18.0508
37.0294
10.1296
39.1593
9.658
-52.7226
143.427
186.87
79.0002
113.925
156.801
208.171
98.0044
141.087
238.296
212.526
148.1
125.949
269.587
252.17
176.695
153.819
-65.9049
-30.5044
41.2854
39.6287
17.5891
28.0342
46.1471
37.977
25.4901
30.5293
31.0626
38.0048
2.2221
-28.9022
-50.4733
-14.3525
-37.4362
-109.187
-53.9183
-32.5197
-27.937
-5.18606
12.8955
25.6309
0.0992345
-0.0672331
0.0021028
-0.374803
-0.855423
-1.05866
-6.25634
-4.05658
-3.87904
-3.95937
-5.80389
-26.2811
-20.5708
-27.6558
-12.1908
-31.3057
-28.1134
-29.8304
-83.1189
-64.0011
-122.078
-81.7489
-70.6651
-59.0705
-111.075
-78.8841
-22.5876
-13.811
-10.352
-13.0304
-32.995
-19.0097
-38.3466
-6.31097
-39.0315
-23.2696
-59.8951
-38.6056
-185.803
-68.0327
-195.904
-48.991
-200.785
-86.2021
-221.544
-26.207
-70.5708
-174.451
-74.3223
-159.9
-105.115
-209.816
-122.422
-188.909
-18.1738
-45.229
-17.626
-68.1571
-38.7027
-53.4222
-47.2633
-105.053
-43.0324
-193.104
-93.1372
-229.484
-22.9619
-161.534
-96.6569
-220.332
-12.534
-51.4552
-22.5788
-56.5611
-19.6086
-74.4448
-6.49479
-41.0475
-116.264
-229.838
-145.074
-220.308
-117.601
-232.572
-123.06
-221.474
-244.013
-198.038
-221.806
-193.371
-244.81
-199.151
-241.388
-201.362
-85.6965
-73.1977
-88.207
-75.5778
-85.5355
-72.3711
-90.1267
-75.9367
-31.5108
-19.7175
-22.8192
-13.1254
-15.8453
-19.0195
-40.1958
-16.052
-11.7541
-14.787
-81.483
-88.4915
-52.3532
-67.1082
-112.43
-102.933
-84.6516
-84.8796
-65.9356
-38.5177
-25.0769
-4.63912
7.55721
6.38115
-1.63527
10.6582
-14.8422
-8.95269
-15.5407
-2.08431
5.10737
3.24779
16.1434
15.9635
-3.26332
-1.31676
6.41201
8.66119
-1.14038
-16.2953
1.87964
60.7856
33.2862
117.791
11.6836
72.6355
11.6825
143.544
11.6727
100.097
11.6728
8.68015
91.9201
37.0757
141.026
11.663
103.464
11.6623
90.5135
11.658
66.4326
11.6578
108.254
108.252
176.256
256.13
211.743
309.875
171.838
246.788
195.053
288.384
236.587
108.175
108.151
172.493
249.741
182.253
277.576
163.126
242.578
164.458
258.177
221.322
108.231
108.225
112.063
132.533
108.118
108.095
112.024
113.812
18.2406
2.759
46.5628
11.6783
-0.79957
9.9371
13.6535
27.0215
76.7206
10.127
12.995
31.8843
70.6177
48.5519
11.6615
8.68513
10.9762
13.3686
28.3637
52.7316
9.48392
12.8131
13.1801
36.9961
112.028
112.083
167.431
289.558
162.232
283.444
150.314
229.696
131.522
237.087
321.045
266.035
336.621
291.651
267.508
223.526
283.648
250.15
111.967
112.014
130.845
194.078
98.9465
187.037
102.998
135.514
74.6776
138.872
231.639
172.799
230.156
203.287
138.9
85.7938
167.361
134.99
112.086
92.8027
92.8027
126.8
112.009
24.8867
25.4993
24.5366
147.798
93.9203
25.1473
24.3656
111.162
71.1777
34.0075
40.3054
23.7775
-6.38441
22.7618
-6.1928
-44.7152
-5.08675
15.7343
-0.336885
-17.8355
134.401
202.076
78.2957
138.047
111.159
169.276
61.5487
119.254
261.1
245.37
172.479
150.36
228.14
218.079
147.675
129.076
-64.1393
-10.6448
91.7829
126.262
50.9767
93.6706
65.4397
89.7447
31.0719
72.526
186.362
185.214
114.648
102.797
136.339
129.311
85.7219
71.6534
-54.5804
-27.6137
49.5562
42.1158
33.506
36.9284
43.9266
39.0825
32.5254
36.7969
26.5326
31.2401
1.18126
-8.59675
-1.58018
11.9192
23.4568
-0.216599
3.12476
0.709884
-0.259265
-0.811022
-0.583452
-4.80819
-5.41988
-5.20371
-4.86502
-6.64716
-29.4015
-23.0745
-23.5602
-0.57135
-25.362
-9.50511
-28.3864
-53.9529
-48.8235
-93.2032
-67.807
-13.8501
-34.0714
-56.471
-52.7724
-26.6133
-16.6167
-12.0954
-25.6686
-8.26992
-139.55
-76.4315
-196.8
-29.6214
-117.357
-43.8636
-150.751
-24.2636
-91.9587
-210.537
-97.9953
-203.769
-30.0482
-163.018
-41.4257
-177.804
-9.98674
-65.1905
-6.90495
-76.0524
-195.653
-155.154
-203.56
-159.554
-135.958
-128.906
-133.264
-127.367
-59.7545
-31.5952
-20.6583
-21.0898
-7.33824
-9.41398
0.156991
-5.31613
-31.816
-0.998062
-24.5975
-123.126
-97.5255
-92.2839
-82.6266
-63.501
-69.4883
-27.9234
-57.7232
-50.2482
-32.7278
-23.2489
-0.442867
-29.4982
-16.8742
-22.8
-10.8995
26.9863
2.11885
-2.06839
-6.26342
-7.79397
-14.9143
-15.8468
6.74781
43.7767
31.1486
11.6631
5.14526
17.8029
10.7951
11.6738
108.148
108.109
111.976
112.016
108.15
108.106
151.604
96.394
108.061
108.043
112.002
24.3972
108.038
48.3083
24.3973
21.9099
25.3439
-1.63316
31.1016
11.6577
19.5695
11.6555
22.1509
11.6632
-3.17477
36.7663
111.974
112.043
96.7891
25.8108
24.8825
125.405
110.439
24.6875
24.0947
91.0652
73.0939
96.7906
24.8684
46.6236
26.6615
111.67
36.2837
36.2839
37.4408
36.2839
35.7631
37.8141
37.1227
10.718
12.7887
2.45475
25.7701
22.4795
-38.8212
0.431822
2.84957
16.6427
-44.3254
9.44385
9.5954
14.5817
17.9186
2.50806
-28.9218
-13.6595
3.44423
12.9924
-0.099529
1.27256
2.17944
1.15316
0.559419
0.31148
3.11842
-3.61836
-3.92195
-3.58781
0.485208
-14.8414
-16.2974
-12.0283
-9.32376
-0.0360593
-30.857
-25.5801
-13.7936
-18.9092
-23.4709
-16.661
-4.64207
-12.6255
-20.9348
-16.8531
-13.5553
0.0817233
-3.20746
-9.95165
-12.9289
-12.5714
-0.23459
2.31707
-3.78064
-6.11776
-7.55288
0.569768
-9.08227
-1.25371
3.66305
0.194433
-9.98162
-1.10054
-4.20518
-0.941969
12.2939
0.874172
-0.937232
0.651354
12.1955
10.0394
6.41807
5.34936
1.71503
-22.256
-14.4389
0.4401
6.19418
1.37213
4.96508
-17.7189
-6.71894
0.627905
-0.0997115
-0.282897
8.10509
6.19498
4.60571
0.215873
-0.179321
4.1417
2.32006
1.21443
0.512916
5.2839
2.14874
-1.05508
-2.07816
-0.0235955
6.53031
2.7876
-1.29851
-3.28335
0.0384441
2.74327
3.31393
0.381801
-2.15512
-0.0591548
0.470771
2.06409
1.26219
-0.276014
0.289313
-5.15299
0.131335
1.62513
1.70231
-0.309569
-5.89605
-1.78706
1.88963
3.41864
-0.556349
13.843
-5.63447
-2.46001
1.59158
0.389442
-5.36003
-16.7927
-9.25056
-4.15728

