# vtk DataFile Version 3.0
Gravity inversion using rectangular prisms
ASCII
DATASET UNSTRUCTURED_GRID

POINTS	1297	double
0	0	0
0	0	200
0	0	400
0	0	600
0	0	800
0	0	1000
0	200	0
0	200	200
0	200	400
0	200	600
0	200	800
0	200	1000
0	400	0
0	400	200
0	400	400
0	400	600
0	400	800
0	400	1000
0	600	0
0	600	200
0	600	400
0	600	600
0	600	800
0	600	1000
0	800	0
0	800	200
0	800	400
0	800	600
0	800	800
0	800	1000
0	1000	0
0	1000	200
0	1000	400
0	1000	600
0	1000	800
0	1000	1000
0	1200	0
0	1200	200
0	1200	400
0	1200	600
0	1200	800
0	1200	1000
0	1400	0
0	1400	200
0	1400	400
0	1400	600
0	1400	800
0	1400	1000
0	1600	0
0	1600	200
0	1600	400
0	1600	600
0	1600	800
0	1600	1000
0	1800	0
0	1800	200
0	1800	400
0	1800	600
0	1800	800
0	1800	1000
0	2000	0
0	2000	200
0	2000	400
0	2000	600
0	2000	800
0	2000	1000
200	0	0
200	0	200
200	0	400
200	0	600
200	0	800
200	0	1000
200	200	0
200	200	200
200	200	400
200	200	600
200	200	800
200	200	1000
200	400	0
200	400	200
200	400	400
200	400	600
200	400	800
200	400	1000
200	600	0
200	600	200
200	600	400
200	600	600
200	600	800
200	600	1000
200	800	0
200	800	200
200	800	400
200	800	600
200	800	800
200	800	1000
200	1000	0
200	1000	200
200	1000	400
200	1000	600
200	1000	800
200	1000	1000
200	1200	0
200	1200	200
200	1200	400
200	1200	600
200	1200	800
200	1200	1000
200	1400	0
200	1400	200
200	1400	400
200	1400	600
200	1400	800
200	1400	1000
200	1600	0
200	1600	200
200	1600	400
200	1600	600
200	1600	800
200	1600	1000
200	1800	0
200	1800	200
200	1800	400
200	1800	600
200	1800	800
200	1800	1000
200	2000	0
200	2000	200
200	2000	400
200	2000	600
200	2000	800
200	2000	1000
400	0	0
400	0	200
400	0	400
400	0	600
400	0	800
400	0	1000
400	200	0
400	200	200
400	200	400
400	200	600
400	200	800
400	200	1000
400	400	0
400	400	200
400	400	400
400	400	600
400	400	800
400	400	1000
400	600	0
400	600	200
400	600	300
400	600	400
400	600	600
400	600	800
400	600	1000
400	700	200
400	700	300
400	700	400
400	800	0
400	800	200
400	800	300
400	800	400
400	800	600
400	800	800
400	800	1000
400	1000	0
400	1000	200
400	1000	400
400	1000	600
400	1000	800
400	1000	1000
400	1200	0
400	1200	200
400	1200	400
400	1200	600
400	1200	800
400	1200	1000
400	1400	0
400	1400	200
400	1400	400
400	1400	600
400	1400	800
400	1400	1000
400	1600	0
400	1600	200
400	1600	400
400	1600	600
400	1600	800
400	1600	1000
400	1800	0
400	1800	200
400	1800	400
400	1800	600
400	1800	800
400	1800	1000
400	2000	0
400	2000	200
400	2000	400
400	2000	600
400	2000	800
400	2000	1000
500	600	200
500	600	300
500	600	400
500	700	200
500	700	300
500	700	400
500	800	200
500	800	300
500	800	400
600	0	0
600	0	200
600	0	400
600	0	600
600	0	800
600	0	1000
600	200	0
600	200	200
600	200	400
600	200	600
600	200	800
600	200	1000
600	400	0
600	400	200
600	400	300
600	400	400
600	400	600
600	400	800
600	400	1000
600	500	200
600	500	300
600	500	400
600	600	0
600	600	100
600	600	200
600	600	300
600	600	400
600	600	500
600	600	600
600	600	800
600	600	1000
600	700	0
600	700	100
600	700	200
600	700	300
600	700	400
600	700	500
600	700	600
600	800	0
600	800	100
600	800	200
600	800	300
600	800	400
600	800	500
600	800	600
600	800	800
600	800	1000
600	900	200
600	900	300
600	900	400
600	1000	0
600	1000	200
600	1000	300
600	1000	400
600	1000	600
600	1000	800
600	1000	1000
600	1200	0
600	1200	200
600	1200	400
600	1200	600
600	1200	800
600	1200	1000
600	1400	0
600	1400	200
600	1400	400
600	1400	600
600	1400	800
600	1400	1000
600	1600	0
600	1600	200
600	1600	400
600	1600	600
600	1600	800
600	1600	1000
600	1800	0
600	1800	200
600	1800	400
600	1800	600
600	1800	800
600	1800	1000
600	2000	0
600	2000	200
600	2000	400
600	2000	600
600	2000	800
600	2000	1000
700	400	200
700	400	300
700	400	400
700	500	200
700	500	300
700	500	400
700	600	0
700	600	100
700	600	200
700	600	300
700	600	400
700	600	500
700	600	600
700	700	0
700	700	100
700	700	200
700	700	300
700	700	400
700	700	500
700	700	600
700	800	0
700	800	100
700	800	200
700	800	300
700	800	400
700	800	500
700	800	600
700	900	200
700	900	300
700	900	400
700	1000	200
700	1000	300
700	1000	400
800	0	0
800	0	200
800	0	400
800	0	600
800	0	800
800	0	1000
800	200	0
800	200	200
800	200	400
800	200	600
800	200	800
800	200	1000
800	400	0
800	400	200
800	400	300
800	400	400
800	400	600
800	400	800
800	400	1000
800	500	200
800	500	300
800	500	400
800	600	0
800	600	100
800	600	200
800	600	300
800	600	400
800	600	500
800	600	600
800	600	800
800	600	1000
800	700	0
800	700	100
800	700	200
800	700	300
800	700	400
800	700	500
800	700	600
800	800	0
800	800	100
800	800	200
800	800	300
800	800	400
800	800	500
800	800	600
800	800	800
800	800	1000
800	900	200
800	900	300
800	900	400
800	900	500
800	900	600
800	1000	0
800	1000	200
800	1000	300
800	1000	400
800	1000	500
800	1000	600
800	1000	800
800	1000	1000
800	1100	200
800	1100	300
800	1100	400
800	1200	0
800	1200	200
800	1200	300
800	1200	400
800	1200	600
800	1200	800
800	1200	1000
800	1300	200
800	1300	300
800	1300	400
800	1400	0
800	1400	200
800	1400	300
800	1400	400
800	1400	600
800	1400	800
800	1400	1000
800	1500	200
800	1500	300
800	1500	400
800	1600	0
800	1600	200
800	1600	300
800	1600	400
800	1600	600
800	1600	800
800	1600	1000
800	1800	0
800	1800	200
800	1800	400
800	1800	600
800	1800	800
800	1800	1000
800	2000	0
800	2000	200
800	2000	400
800	2000	600
800	2000	800
800	2000	1000
900	400	200
900	400	300
900	400	400
900	500	200
900	500	300
900	500	400
900	600	0
900	600	100
900	600	200
900	600	300
900	600	400
900	600	500
900	600	600
900	700	0
900	700	100
900	700	200
900	700	300
900	700	400
900	700	500
900	700	600
900	800	0
900	800	100
900	800	200
900	800	300
900	800	400
900	800	500
900	800	600
900	900	200
900	900	300
900	900	400
900	900	500
900	900	600
900	1000	200
900	1000	300
900	1000	400
900	1000	500
900	1000	600
900	1100	200
900	1100	300
900	1100	400
900	1200	200
900	1200	300
900	1200	400
900	1300	200
900	1300	300
900	1300	400
900	1400	200
900	1400	300
900	1400	400
900	1500	200
900	1500	300
900	1500	400
900	1600	200
900	1600	300
900	1600	400
1000	0	0
1000	0	200
1000	0	400
1000	0	600
1000	0	800
1000	0	1000
1000	200	0
1000	200	200
1000	200	400
1000	200	600
1000	200	800
1000	200	1000
1000	400	0
1000	400	200
1000	400	300
1000	400	400
1000	400	600
1000	400	800
1000	400	1000
1000	500	200
1000	500	300
1000	500	400
1000	600	0
1000	600	100
1000	600	200
1000	600	300
1000	600	400
1000	600	500
1000	600	600
1000	600	800
1000	600	1000
1000	700	0
1000	700	100
1000	700	200
1000	700	300
1000	700	400
1000	700	500
1000	700	600
1000	800	0
1000	800	100
1000	800	200
1000	800	300
1000	800	400
1000	800	500
1000	800	600
1000	800	800
1000	800	1000
1000	900	200
1000	900	300
1000	900	400
1000	900	500
1000	900	600
1000	1000	0
1000	1000	200
1000	1000	300
1000	1000	400
1000	1000	500
1000	1000	600
1000	1000	800
1000	1000	1000
1000	1100	200
1000	1100	300
1000	1100	400
1000	1100	500
1000	1100	600
1000	1200	0
1000	1200	100
1000	1200	200
1000	1200	300
1000	1200	400
1000	1200	500
1000	1200	600
1000	1200	800
1000	1200	1000
1000	1300	0
1000	1300	100
1000	1300	200
1000	1300	300
1000	1300	400
1000	1300	500
1000	1300	600
1000	1400	0
1000	1400	100
1000	1400	200
1000	1400	300
1000	1400	400
1000	1400	500
1000	1400	600
1000	1400	800
1000	1400	1000
1000	1500	0
1000	1500	100
1000	1500	200
1000	1500	300
1000	1500	400
1000	1500	500
1000	1500	600
1000	1600	0
1000	1600	100
1000	1600	200
1000	1600	300
1000	1600	400
1000	1600	500
1000	1600	600
1000	1600	800
1000	1600	1000
1000	1700	200
1000	1700	300
1000	1700	400
1000	1800	0
1000	1800	200
1000	1800	300
1000	1800	400
1000	1800	600
1000	1800	800
1000	1800	1000
1000	2000	0
1000	2000	200
1000	2000	400
1000	2000	600
1000	2000	800
1000	2000	1000
1100	600	0
1100	600	100
1100	600	200
1100	600	300
1100	600	400
1100	700	0
1100	700	100
1100	700	200
1100	700	300
1100	700	400
1100	800	0
1100	800	100
1100	800	200
1100	800	300
1100	800	400
1100	900	200
1100	900	300
1100	900	400
1100	1000	200
1100	1000	300
1100	1000	400
1100	1000	500
1100	1000	600
1100	1100	200
1100	1100	300
1100	1100	400
1100	1100	500
1100	1100	600
1100	1200	0
1100	1200	100
1100	1200	200
1100	1200	300
1100	1200	400
1100	1200	500
1100	1200	600
1100	1300	0
1100	1300	100
1100	1300	200
1100	1300	300
1100	1300	400
1100	1300	500
1100	1300	600
1100	1400	0
1100	1400	100
1100	1400	200
1100	1400	300
1100	1400	400
1100	1400	500
1100	1400	600
1100	1500	0
1100	1500	100
1100	1500	200
1100	1500	300
1100	1500	400
1100	1500	500
1100	1500	600
1100	1600	0
1100	1600	100
1100	1600	200
1100	1600	300
1100	1600	400
1100	1600	500
1100	1600	600
1100	1700	200
1100	1700	300
1100	1700	400
1100	1800	200
1100	1800	300
1100	1800	400
1200	0	0
1200	0	200
1200	0	400
1200	0	600
1200	0	800
1200	0	1000
1200	200	0
1200	200	200
1200	200	400
1200	200	600
1200	200	800
1200	200	1000
1200	400	0
1200	400	200
1200	400	300
1200	400	400
1200	400	600
1200	400	800
1200	400	1000
1200	500	200
1200	500	300
1200	500	400
1200	600	0
1200	600	100
1200	600	200
1200	600	300
1200	600	400
1200	600	500
1200	600	600
1200	600	800
1200	600	1000
1200	700	0
1200	700	100
1200	700	200
1200	700	300
1200	700	400
1200	700	500
1200	700	600
1200	800	0
1200	800	100
1200	800	200
1200	800	300
1200	800	400
1200	800	500
1200	800	600
1200	800	800
1200	800	1000
1200	900	200
1200	900	300
1200	900	400
1200	1000	0
1200	1000	200
1200	1000	300
1200	1000	400
1200	1000	500
1200	1000	600
1200	1000	800
1200	1000	1000
1200	1100	200
1200	1100	300
1200	1100	400
1200	1100	500
1200	1100	600
1200	1200	0
1200	1200	100
1200	1200	200
1200	1200	300
1200	1200	400
1200	1200	500
1200	1200	600
1200	1200	800
1200	1200	1000
1200	1300	0
1200	1300	100
1200	1300	200
1200	1300	300
1200	1300	400
1200	1300	500
1200	1300	600
1200	1400	0
1200	1400	100
1200	1400	200
1200	1400	300
1200	1400	400
1200	1400	500
1200	1400	600
1200	1400	800
1200	1400	1000
1200	1500	0
1200	1500	100
1200	1500	200
1200	1500	300
1200	1500	400
1200	1500	500
1200	1500	600
1200	1600	0
1200	1600	100
1200	1600	200
1200	1600	300
1200	1600	400
1200	1600	500
1200	1600	600
1200	1600	800
1200	1600	1000
1200	1700	200
1200	1700	300
1200	1700	400
1200	1800	0
1200	1800	200
1200	1800	300
1200	1800	400
1200	1800	600
[...]
CELL_DATA	850
SCALARS density double 1
LOOKUP_TABLE table0
0.0589964
3.10223
-12.656
-9.16022
-5.6575
0.428992
-0.435548
-10.4415
-6.14461
-3.27512
0.0551725
0.934115
-8.43079
-3.34367
-0.831157
0.0930141
0.520383
-8.62655
-2.85443
0.435939
0.597343
-7.59382
-14.2299
-6.0589
-0.837057
-0.797689
1.2781
-11.0273
-7.37879
-3.26565
-0.561771
0.914387
-5.8028
-5.82386
-4.72616
0.468738
-9.6773
-5.55855
-4.34935
-5.85346
-0.220579
7.01576
2.48087
-4.36112
-9.80552
0.126203
-0.848525
-4.76858
-9.81659
-13.8016
-0.115722
1.95285
-3.99589
-1.06481
-0.240553
-0.00113929
-2.53754
0.843921
2.80156
2.37448
0.696602
-12.3147
6.08571
7.76267
5.61437
0.126444
-0.723186
11.5054
11.9222
8.70589
0.145549
-9.00674
3.4186
10.1046
9.74914
-0.919479
0.203405
-2.43137
4.96288
7.94725
-1.65361
5.22328
-1.83967
2.21298
4.95054
-0.658631
-0.327016
-4.29869
-1.3328
0.334838
-0.0713713
-4.52748
-5.62543
-6.94403
-8.33622
0.102208
-3.84663
-9.23167
-11.6574
-13.0095
-0.351675
-6.22867
1.10083
1.7633
1.3778
-1.03383
2.00229
8.40414
5.74177
3.61727
1.36635
36.5014
26.219
12.25
6.65626
6.59695
-8.76197
32.0649
-6.91913
27.4532
148.555
99.8961
133.029
106.902
52.2905
20.615
10.2531
3.14166
12.1473
41.0085
23.721
13.1946
0.583272
-30.5114
9.33181
18.473
14.6507
-1.00584
-8.87797
-3.12647
13.1826
15.8144
-0.545989
-1.77291
-7.81719
3.71511
11.9423
-0.188711
5.57681
-9.04494
-5.16805
-0.148272
-0.874387
7.06816
-7.62048
-8.84613
-6.40831
-0.935829
1.98661
2.3584
1.8181
1.17148
-0.43511
14.8809
8.144
4.51206
2.36813
16.1471
68.2898
69.2618
133.888
94.3141
87.187
76.3433
130.368
94.8344
23.1122
8.89591
3.78604
15.5697
161.5
9.88266
158.108
9.79249
204.14
15.3296
157.338
258.497
187.594
259.65
195.082
251.678
193.916
276.675
205.37
73.4521
55.9712
83.5905
60.562
71.9785
57.0716
81.7507
61.3958
15.5838
5.51534
12.2675
158.06
131.679
13.8809
47.959
190.93
147.735
57.5256
86.1212
68.2392
21.524
7.85165
-2.04926
-7.93489
35.1138
26.3307
12.9426
-2.12422
-12.1192
4.93267
5.72038
23.9058
-0.887735
-35.2859
4.03086
4.20727
24.9645
-1.04029
-43.9002
3.11757
-0.611752
14.4486
-0.257397
-8.67409
-16.7727
-6.25877
4.59057
-1.08833
2.28966
1.51287
0.944522
0.357474
0.189369
9.91671
4.03349
1.60129
0.135171
7.49789
55.3826
39.8331
86.6046
53.1398
51.0231
36.2728
72.1932
43.3539
7.81609
1.40934
-1.03365
1.28728
197.838
-1.69325
164.72
-16.9443
128.695
-25.5646
132.675
194.364
145.159
224.875
159.74
152.299
125.233
168.655
132.47
33.1523
21.7364
42.7678
26.1667
24.5147
17.9686
31.5489
21.0821
0.650647
-3.07259
-4.9598
165.377
129.391
58.8336
91.7354
130.743
109.418
66.7
94.4257
54.7173
38.8535
52.9485
40.9218
46.0332
34.5714
50.1341
38.9857
2.75435
-3.66347
-6.98905
-31.3688
23.3031
-92.466
7.8266
16.3565
48.406
37.2901
57.8695
32.813
32.4443
4.39327
9.34707
-62.0566
105.317
103.413
103.379
107.96
107.697
295.583
117.529
106.513
62.5228
26.5376
6.62263
103.03
103.165
102.966
102.871
117.746
117.773
54.8542
103.068
104.932
32.1104
36.9886
-8.84889
78.2367
32.657
14.8177
31.1374
-0.232633
-39.7448
-21.403
2.63327
17.7818
-0.184526
0.428125
0.333875
-0.0233013
-0.5174
-0.385363
0.216983
-0.684341
-1.53836
-2.24399
-2.0431
-21.6209
-9.61371
-7.05915
-6.2735
-8.22407
34.2128
-19.354
71.509
8.46728
-155.924
-1.75581
-78.6416
-40.6322
-54.8273
-16.4266
-44.466
-123.564
-84.4868
-98.2185
-78.4839
-31.249
-17.8675
-12.6909
-15.0958
7.47864
-4.39478
10.5282
10.2834
-28.7014
-23.6627
18.9954
1.20301
-32.0027
-22.578
-16.792
-11.6806
40.1226
46.3699
60.3059
62.8025
52.7773
42.7972
43.3957
48.9306
30.3503
18.9973
43.4737
30.5426
34.5945
26.6849
47.0401
40.3084
22.0428
-7.84626
8.7369
-34.2328
57.8929
11.747
16.1998
81.1867
44.6037
11.9155
108.061
107.993
314.329
117.308
108.42
108.341
275.842
247.589
108.53
108.518
117.056
267.356
108.817
108.877
117.132
155.673
44.0707
13.4826
33.5273
11.7257
-2.92323
11.5237
50.8291
11.8294
20.1368
11.8659
117.536
117.523
151.662
103.742
117.37
117.345
214.827
254.108
117.275
106.822
106.817
359.349
117.263
93.7788
93.7743
176.989
37.9985
36.6181
-5.53588
31.7639
53.6873
-93.3242
-68.5891
90.8466
135.698
-63.9933
-30.6802
30.3734
31.0199
38.0373
-0.597937
-33.3927
-4.88647
13.0338
25.7227
0.243126
-0.407215
-0.324527
-0.679594
-1.16069
-1.47117
-6.54321
-4.35315
-4.16854
-4.25606
-13.7395
-80.7948
-64.0533
-118.768
-80.6384
-68.5158
-60.1117
-107.746
-78.4768
-22.7435
-14.0333
-10.6097
13.8898
-237.913
-3.02364
-211.735
-2.91676
-240.818
1.61744
-249.165
-243.075
-197.128
-222.584
-192.206
-244.125
-198.89
-242.251
-200.961
-85.0255
-73.331
-86.4233
-74.6701
-85.6454
-73.2705
-89.2652
-75.8435
-31.6004
-19.8937
-17.0485
-80.9037
-85.434
-48.2894
-61.882
-112.984
-101.341
-84.2621
-82.3124
-65.5672
-38.3947
-25.1302
-3.96843
16.5956
14.5094
8.83889
19.1213
-12.221
-4.65813
-13.0091
2.26207
11.9389
8.3927
22.817
20.8652
1.09881
2.16915
10.7053
12.0488
-0.838766
-16.2438
9.0542
58.0047
45.7115
12.0259
16.4637
76.582
56.9212
12.1128
108.488
108.527
247.505
236.921
108.654
108.829
261.412
222.19
109.075
109.136
117.326
134.84
109.374
109.304
117.327
116.403
18.4646
2.82792
48.1276
11.9729
7.81683
11.9389
60.3794
12.1083
14.6836
12.0873
117.17
117.118
251.248
284.632
116.91
116.805
243.537
238.293
117.225
92.5901
92.5808
126.683
117.158
24.6151
24.6101
30.4332
40.3155
23.7803
-5.80583
113.2
172.098
-56.4964
-11.9174
88.7645
133.736
-71.8994
-39.7331
36.6629
26.4199
31.2327
-1.26774
-7.98427
-1.97676
11.9782
23.595
-0.0534628
2.6503
0.295742
-0.672101
-1.24874
-0.76299
-5.66632
-5.93201
-5.64904
-5.31081
-8.87399
-52.9887
-51.2154
-91.177
-68.5007
-16.3382
-38.4184
-54.8567
-54.5137
-26.9983
-17.0088
-12.5042
-0.279153
-204.129
-1.41969
-228.043
3.21209
-72.0681
5.66668
-79.82
-195.445
-155.408
-203.884
-159.407
-137.143
-130.386
-133.478
-128.515
-59.9325
-31.8532
-20.9753
-6.30927
-123.636
-96.7624
-93.7036
-81.62
-59.2588
-69.5735
-23.2532
-57.4625
-50.2633
-32.8251
-23.4426
-1.47044
-29.957
-14.943
-24.6588
-9.04341
31.9002
3.58418
3.05012
-3.63665
-7.62023
-14.8673
-15.9328
12.4357
109.146
109.465
116.817
116.866
109.074
109.523
151.286
98.2805
109.517
109.661
116.928
24.4406
109.687
49.8736
24.4251
23.0437
25.4533
-1.67912
12.208
116.806
116.771
96.1722
24.3492
96.1558
24.3381
33.4032
21.9478
36.2403
10.6818
12.7302
0.874141
14.7097
9.21861
14.47
17.8832
1.13908
-28.5931
-13.6117
3.74021
13.2519
-0.152495
3.34972
2.17494
0.719887
-0.0244687
0.380168
2.06711
-4.08646
-4.45005
-4.18085
0.653839
-15.0136
-16.6864
-12.4935
-9.85237
1.05468
-29.4155
-26.6317
-15.8066
-21.2462
-20.1104
-17.5261
-9.74347
-16.142
-21.2227
-17.1738
-13.9564
-0.158492
-3.73613
-10.2387
-13.1444
-12.8451
-1.02415
2.22906
-3.83914
-6.21334
-7.73159
-0.335587
4.06607
12.5182
0.853013
-1.07342
1.2182
12.4535
9.9701
6.30808
5.20496
1.81666
-28.9724
-15.527
0.254011
6.13327
1.5893
-0.206916
-17.6267
-6.0813
1.04798
-0.0919032
0.399389
7.42409
5.27748
3.633
0.262775
0.150431
3.50819
1.51185
0.3445
0.500649
7.11817
2.20277
-1.49533
-2.72193
0.170599
6.44128
2.76894
-1.48758
-3.68471
0.0247079
2.58462
3.17344
0.244174
-2.41248
-0.203075
0.479529
2.01111
1.15536
-0.476991
-0.177632
-4.88229
0.0799572
1.48172
1.49233
-0.0696517
-7.63184
-2.3429
1.59424
3.18017
-0.0313366
12.365
-6.15188
-2.60056
1.51015
0.50295
-4.13772
-14.4545
-8.0262
-3.56733

