# vtk DataFile Version 3.0
Gravity inversion using rectangular prisms
ASCII
DATASET UNSTRUCTURED_GRID

POINTS	4328	double
0	0	0
0	0	200
0	0	400
0	0	600
0	0	800
0	0	1000
0	200	0
0	200	200
0	200	400
0	200	600
0	200	800
0	200	1000
0	400	0
0	400	200
0	400	400
0	400	600
0	400	800
0	400	1000
0	600	0
0	600	200
0	600	400
0	600	600
0	600	800
0	600	1000
0	800	0
0	800	200
0	800	400
0	800	600
0	800	800
0	800	1000
0	1000	0
0	1000	200
0	1000	400
0	1000	600
0	1000	800
0	1000	1000
0	1200	0
0	1200	200
0	1200	400
0	1200	600
0	1200	800
0	1200	1000
0	1400	0
0	1400	200
0	1400	400
0	1400	600
0	1400	800
0	1400	1000
0	1600	0
0	1600	200
0	1600	400
0	1600	600
0	1600	800
0	1600	1000
0	1800	0
0	1800	200
0	1800	400
0	1800	600
0	1800	800
0	1800	1000
0	2000	0
0	2000	200
0	2000	400
0	2000	600
0	2000	800
0	2000	1000
200	0	0
200	0	200
200	0	400
200	0	600
200	0	800
200	0	1000
200	200	0
200	200	200
200	200	400
200	200	600
200	200	800
200	200	1000
200	400	0
200	400	200
200	400	400
200	400	600
200	400	800
200	400	1000
200	600	0
200	600	200
200	600	400
200	600	600
200	600	800
200	600	1000
200	800	0
200	800	200
200	800	400
200	800	600
200	800	800
200	800	1000
200	1000	0
200	1000	200
200	1000	400
200	1000	600
200	1000	800
200	1000	1000
200	1200	0
200	1200	200
200	1200	400
200	1200	600
200	1200	800
200	1200	1000
200	1400	0
200	1400	200
200	1400	400
200	1400	600
200	1400	800
200	1400	1000
200	1600	0
200	1600	200
200	1600	400
200	1600	600
200	1600	800
200	1600	1000
200	1800	0
200	1800	200
200	1800	400
200	1800	600
200	1800	800
200	1800	1000
200	2000	0
200	2000	200
200	2000	400
200	2000	600
200	2000	800
200	2000	1000
400	0	0
400	0	200
400	0	400
400	0	600
400	0	800
400	0	1000
400	200	0
400	200	200
400	200	400
400	200	600
400	200	800
400	200	1000
400	400	0
400	400	100
400	400	200
400	400	300
400	400	400
400	400	600
400	400	800
400	400	1000
400	500	0
400	500	100
400	500	200
400	500	300
400	500	400
400	600	0
400	600	100
400	600	200
400	600	300
400	600	400
400	600	600
400	600	800
400	600	1000
400	700	0
400	700	100
400	700	200
400	700	300
400	700	400
400	800	0
400	800	100
400	800	200
400	800	300
400	800	400
400	800	600
400	800	800
400	800	1000
400	900	0
400	900	100
400	900	200
400	900	300
400	900	400
400	1000	0
400	1000	100
400	1000	200
400	1000	300
400	1000	400
400	1000	600
400	1000	800
400	1000	1000
400	1100	200
400	1100	300
400	1100	400
400	1200	0
400	1200	200
400	1200	300
400	1200	400
400	1200	600
400	1200	800
400	1200	1000
400	1400	0
400	1400	200
400	1400	400
400	1400	600
400	1400	800
400	1400	1000
400	1600	0
400	1600	200
400	1600	400
400	1600	600
400	1600	800
400	1600	1000
400	1800	0
400	1800	200
400	1800	400
400	1800	600
400	1800	800
400	1800	1000
400	2000	0
400	2000	200
400	2000	400
400	2000	600
400	2000	800
400	2000	1000
500	400	0
500	400	100
500	400	200
500	400	300
500	400	400
500	500	0
500	500	100
500	500	150
500	500	200
500	500	300
500	500	400
500	550	100
500	550	150
500	550	200
500	600	0
500	600	100
500	600	150
500	600	200
500	600	300
500	600	400
500	650	100
500	650	150
500	650	200
500	700	0
500	700	100
500	700	150
500	700	200
500	700	300
500	700	400
500	750	100
500	750	150
500	750	200
500	800	0
500	800	100
500	800	150
500	800	200
500	800	300
500	800	400
500	900	0
500	900	100
500	900	200
500	900	300
500	900	400
500	1000	0
500	1000	100
500	1000	200
500	1000	300
500	1000	400
500	1100	200
500	1100	300
500	1100	400
500	1200	200
500	1200	300
500	1200	400
550	500	100
550	500	150
550	500	200
550	550	100
550	550	150
550	550	200
550	600	100
550	600	150
550	600	200
550	650	100
550	650	150
550	650	200
550	700	100
550	700	150
550	700	200
550	750	100
550	750	150
550	750	200
550	800	100
550	800	150
550	800	200
600	0	0
600	0	200
600	0	400
600	0	600
600	0	800
600	0	1000
600	200	0
600	200	200
600	200	400
600	200	600
600	200	800
600	200	1000
600	400	0
600	400	100
600	400	200
600	400	300
600	400	400
600	400	600
600	400	800
600	400	1000
600	500	0
600	500	100
600	500	150
600	500	200
600	500	250
600	500	300
600	500	400
600	550	100
600	550	150
600	550	200
600	550	250
600	550	300
600	600	0
600	600	50
600	600	100
600	600	150
600	600	200
600	600	250
600	600	300
600	600	400
600	600	500
600	600	600
600	600	800
600	600	1000
600	650	0
600	650	50
600	650	100
600	650	150
600	650	200
600	650	250
600	650	300
600	700	0
600	700	50
600	700	100
600	700	150
600	700	200
600	700	250
600	700	300
600	700	400
600	700	500
600	700	600
600	750	0
600	750	50
600	750	100
600	750	150
600	750	200
600	800	0
600	800	50
600	800	100
600	800	150
600	800	200
600	800	250
600	800	300
600	800	400
600	800	500
600	800	600
600	800	800
600	800	1000
600	850	100
600	850	150
600	850	200
600	850	250
600	850	300
600	900	0
600	900	100
600	900	150
600	900	200
600	900	250
600	900	300
600	900	400
600	900	500
600	900	600
600	1000	0
600	1000	100
600	1000	200
600	1000	300
600	1000	400
600	1000	500
600	1000	600
600	1000	800
600	1000	1000
600	1100	0
600	1100	100
600	1100	200
600	1100	250
600	1100	300
600	1100	400
600	1100	500
600	1100	600
600	1150	200
600	1150	250
600	1150	300
600	1200	0
600	1200	100
600	1200	200
600	1200	250
600	1200	300
600	1200	400
600	1200	500
600	1200	600
600	1200	800
600	1200	1000
600	1300	200
600	1300	300
600	1300	400
600	1400	0
600	1400	200
600	1400	300
600	1400	400
600	1400	600
600	1400	800
600	1400	1000
600	1500	200
600	1500	300
600	1500	400
600	1600	0
600	1600	100
600	1600	200
600	1600	300
600	1600	400
600	1600	500
600	1600	600
600	1600	800
600	1600	1000
600	1700	0
600	1700	100
600	1700	200
600	1700	300
600	1700	400
600	1700	500
600	1700	600
600	1800	0
600	1800	100
600	1800	200
600	1800	300
600	1800	400
600	1800	500
600	1800	600
600	1800	800
600	1800	1000
600	1900	0
600	1900	100
600	1900	200
600	1900	300
600	1900	400
600	1900	500
600	1900	600
600	2000	0
600	2000	100
600	2000	200
600	2000	300
600	2000	400
600	2000	500
600	2000	600
600	2000	800
600	2000	1000
650	500	100
650	500	150
650	500	200
650	500	250
650	500	300
650	550	100
650	550	150
650	550	200
650	550	250
650	550	300
650	600	0
650	600	50
650	600	100
650	600	150
650	600	200
650	600	250
650	600	300
650	650	0
650	650	50
650	650	100
650	650	150
650	650	200
650	650	250
650	650	300
650	700	0
650	700	50
650	700	100
650	700	150
650	700	200
650	700	250
650	700	300
650	750	0
650	750	50
650	750	100
650	750	150
650	750	200
650	800	0
650	800	50
650	800	100
650	800	150
650	800	200
650	800	250
650	800	300
650	850	100
650	850	150
650	850	200
650	850	250
650	850	300
650	900	100
650	900	150
650	900	200
650	900	250
650	900	300
650	1100	200
650	1100	250
650	1100	300
650	1150	200
650	1150	250
650	1150	300
650	1200	200
650	1200	250
650	1200	300
700	400	0
700	400	100
700	400	200
700	400	300
700	400	400
700	500	0
700	500	100
700	500	150
700	500	200
700	500	250
700	500	300
700	500	400
700	550	100
700	550	150
700	550	200
700	550	250
700	550	300
700	600	0
700	600	50
700	600	100
700	600	150
700	600	200
700	600	250
700	600	300
700	600	400
700	600	500
700	600	600
700	650	0
700	650	50
700	650	100
700	650	150
700	650	200
700	650	250
700	650	300
700	700	0
700	700	50
700	700	100
700	700	150
700	700	200
700	700	250
700	700	300
700	700	400
700	700	500
700	700	600
700	750	0
700	750	50
700	750	100
700	750	150
700	750	200
700	800	0
700	800	50
700	800	100
700	800	150
700	800	200
700	800	250
700	800	300
700	800	400
700	800	500
700	800	600
700	850	100
700	850	150
700	850	200
700	850	250
700	850	300
700	900	0
700	900	100
700	900	150
700	900	200
700	900	250
700	900	300
700	900	400
700	900	500
700	900	600
700	1000	0
700	1000	100
700	1000	200
700	1000	300
700	1000	400
700	1000	500
700	1000	600
700	1100	0
700	1100	100
700	1100	200
700	1100	250
700	1100	300
700	1100	400
700	1100	500
700	1100	600
700	1150	200
700	1150	250
700	1150	300
700	1200	0
700	1200	100
700	1200	200
700	1200	250
700	1200	300
700	1200	400
700	1200	500
700	1200	600
700	1300	200
700	1300	300
700	1300	400
700	1400	200
700	1400	300
700	1400	400
700	1500	200
700	1500	300
700	1500	400
700	1600	0
700	1600	100
700	1600	200
700	1600	250
700	1600	300
700	1600	400
700	1600	500
700	1600	600
700	1650	200
700	1650	250
700	1650	300
700	1700	0
700	1700	100
700	1700	200
700	1700	250
700	1700	300
700	1700	400
700	1700	450
700	1700	500
700	1700	600
700	1750	200
700	1750	250
700	1750	300
700	1750	400
700	1750	450
700	1750	500
700	1800	0
700	1800	100
700	1800	200
700	1800	250
700	1800	300
700	1800	400
700	1800	450
700	1800	500
700	1800	600
700	1900	0
700	1900	100
700	1900	200
700	1900	300
700	1900	400
700	1900	500
700	1900	600
700	2000	0
700	2000	100
700	2000	200
700	2000	300
700	2000	400
700	2000	500
700	2000	600
750	500	100
750	500	150
750	500	200
750	550	100
750	550	150
750	550	200
750	600	0
750	600	50
750	600	100
750	600	150
750	600	200
750	600	250
750	600	300
750	650	0
750	650	50
750	650	100
750	650	150
750	650	200
750	650	250
750	650	300
750	700	0
750	700	50
750	700	100
750	700	150
750	700	200
750	700	250
750	700	300
750	750	0
750	750	50
750	750	100
750	750	150
750	750	200
750	800	0
750	800	50
750	800	100
750	800	150
750	800	200
750	850	100
750	850	150
750	850	200
750	900	100
750	900	150
750	900	200
750	1100	200
750	1100	250
750	1100	300
750	1150	200
750	1150	250
750	1150	300
750	1200	200
750	1200	250
750	1200	300
750	1600	200
750	1600	250
750	1600	300
750	1650	200
750	1650	250
750	1650	300
750	1700	200
750	1700	250
750	1700	300
750	1700	400
750	1700	450
750	1700	500
750	1750	200
750	1750	250
750	1750	300
750	1750	400
750	1750	450
750	1750	500
750	1800	200
750	1800	250
750	1800	300
750	1800	400
750	1800	450
750	1800	500
800	0	0
800	0	200
800	0	400
800	0	600
800	0	800
800	0	1000
800	200	0
800	200	200
800	200	400
800	200	600
800	200	800
800	200	1000
800	400	0
800	400	100
800	400	200
800	400	300
800	400	400
800	400	600
800	400	800
800	400	1000
800	500	0
800	500	100
800	500	150
800	500	200
800	500	300
800	500	400
800	550	100
800	550	150
800	550	200
800	600	0
800	600	50
800	600	100
800	600	150
800	600	200
800	600	250
800	600	300
800	600	400
800	600	500
800	600	600
800	600	800
800	600	1000
800	650	0
800	650	50
800	650	100
800	650	150
800	650	200
800	650	250
800	650	300
800	700	0
800	700	50
800	700	100
800	700	150
800	700	200
800	700	250
[...]
CELL_DATA	2887
SCALARS density double 1
LOOKUP_TABLE table0
0.736302
-4.62976
-9.19324
-4.23509
-2.28621
0.785488
-3.46948
-6.24667
-2.53778
-1.23794
0.372961
-5.83195
-4.64762
-0.923294
-0.0937512
0.422948
-6.19676
-6.06703
-0.492704
0.893832
0.885799
-14.4088
-13.958
-2.36135
1.49905
-0.177825
-10.5136
-16.9704
-4.79122
1.68682
-0.0741008
-5.96647
-15.7597
-6.49341
0.675265
0.941254
-18.7002
-15.6402
-8.98006
-4.02443
-0.0644002
9.12607
-7.13806
-17.9169
-18.1912
0.802498
-5.12397
-27.876
-37.4451
-35.4316
0.205952
-2.24347
0.450926
0.98855
0.531637
0.00359295
1.73002
3.64934
2.80943
1.61465
0.232265
-1.37823
7.78861
5.26719
3.05811
-0.409099
5.39539
12.5031
8.27571
5.1448
0.229979
-4.19123
10.8221
11.2435
8.4202
-1.08828
-6.86323
7.29978
14.4508
13.3722
-1.71643
0.0993642
6.22402
16.1503
18.093
-0.248972
-10.4934
-1.90873
10.3912
16.4699
0.107256
0.646964
-8.9178
-6.45717
1.17758
0.983176
-9.01056
-28.2121
-25.7606
-16.3667
-0.517843
0.99693
2.98933
2.08445
1.04034
-0.270138
7.17586
6.15858
3.66224
1.834
-3.48221
7.33233
-3.37555
16.9443
-4.39976
25.199
-2.81838
-3.88025
13.2974
94.0192
44.5844
84.3037
48.3631
130.081
68.4144
28.0942
30.7611
28.894
30.7968
31.4376
31.765
32.0394
31.8822
12.9043
6.14657
2.97394
-2.69352
7.44224
6.6883
4.46663
1.64844
55.3548
95.5118
25.2082
33.7872
117.913
156.15
77.0632
116.144
10.3935
-43.6741
14.2618
-18.4943
25.0305
59.0771
81.2621
40.588
67.5044
53.9345
65.8994
32.8221
60.118
101.885
77.3925
86.8069
73.4145
24.2431
10.2211
5.14266
5.75066
-11.3923
6.0222
-35.4926
0.0729224
17.6163
6.66428
12.7282
26.9771
31.5106
6.12713
24.8946
32.7685
32.1076
22.8595
27.3592
32.242
17.17
10.0202
0.627304
-23.9053
-22.2376
-42.416
-26.9359
-23.1209
-21.5239
-35.6921
-25.0894
36.9731
30.0839
20.0615
-0.959399
-26.5831
34.0484
43.1523
34.0591
-0.391082
-31.084
11.3505
38.0424
41.337
-0.030934
-11.0179
-13.3289
14.9864
29.7302
0.690228
-10.9696
-22.8174
-1.75838
13.5478
0.0724419
3.75164
2.5215
1.44361
0.451959
2.44815
9.4579
4.80275
2.32848
0.688022
-3.25638
83.0367
0.266417
132.148
144.552
139.901
158.426
97.6323
137.813
103.52
141.526
4.59425
63.4848
9.32894
111.407
125.642
92.7899
121.71
168.911
127.057
128.088
120.873
50.1388
39.3476
76.3091
69.102
84.7133
73.4301
78.1055
71.5534
83.3431
74.5967
43.0279
46.7087
38.9712
50.8103
41.3333
9.2526
3.46054
0.887895
-2.41946
22.2515
-3.81949
40.8853
-4.42518
59.9078
2.96144
67.177
98.1143
298.713
116.537
261.113
146.695
307.173
150.373
295.514
-10.1449
44.5989
-15.8335
38.7497
-9.24091
51.5437
15.9114
64.6393
107.793
197.011
93.1379
156.664
121.976
252.779
78.6029
220.214
-27.3447
70.2575
-13.2941
59.1137
4.20481
60.9024
1.902
54.378
139.904
274.342
151.118
269.203
180.05
281.412
176.695
278.853
-11.3526
50.7996
15.1059
69.1234
9.55594
55.7322
10.903
53.4578
130.238
228.042
101.293
209.467
143.397
221.436
103.926
192.028
241.635
226.083
238.313
225.076
242.561
230.936
242.412
229.796
120.35
213.033
137.351
197.702
190.361
200.781
192.125
194.132
188.697
195.306
189.158
116.908
206.874
133.827
20.9592
20.2366
20.2731
19.7856
20.7186
20.0661
19.927
19.5444
5.90116
1.91302
16.643
65.4459
133.931
30.5466
117.818
54.9769
172.917
84.4255
123.157
-0.0478602
47.7059
17.7063
75.2903
157.742
74.772
98.8554
79.32
116.813
53.6641
80.5945
12.2307
-10.6402
154.503
153.873
139.963
143.418
165.859
160.411
145.971
151.146
121.473
45.2072
68.0806
160.281
131.434
66.8201
96.7462
35.1319
34.9409
34.789
34.7386
34.9307
34.8186
34.6525
34.621
13.6503
6.7061
1.97615
5.48683
2.8132
24.9534
7.88655
-12.4113
5.98674
-26.0463
-32.3544
23.3682
-69.5819
-100.351
-80.3123
-110.576
-84.0033
-106.42
-93.5939
-114.179
-30.436
-14.8503
57.9044
-104.004
-121.98
-115.849
-130.089
-97.967
-114.239
-111.324
-119.003
12.932
60.5208
62.0495
59.1692
61.2572
60.8853
61.8799
60.2409
61.2711
35.3179
20.4815
-1.04597
-13.4398
-6.92015
-29.2718
-7.9818
0.598764
2.99083
2.94293
2.77492
18.8398
18.8372
41.5758
-2.82712
-36.7294
-7.4511
-3.73017
4.19374
0.856902
1.1099
19.5318
6.82051
18.9382
18.6983
57.3377
-1.77673
1.29086
1.12305
-1.70784
-4.16622
24.1465
2.92977
-36.9465
-68.3379
-18.6873
46.331
32.3269
-9.72158
-34.5518
-38.489
-43.3031
16.7166
-17.953
-9.06909
-35.0295
-38.8032
-28.5861
18.8814
-22.8702
39.9633
-16.0954
-1.64276
-6.68015
21.1667
10.964
24.4763
21.328
18.8283
8.58468
19.6707
18.7732
13.5066
10.1034
8.30074
4.93132
-14.5022
-14.0817
-22.1779
-22.2249
0.0741213
43.5651
61.7109
1.75219
4.63908
0.731464
-2.51843
4.28884
-0.765018
-0.826666
17.096
0.785964
-37.6977
-56.1246
-55.4065
33.8909
-51.3583
-16.6804
-49.3486
-30.614
-31.6351
-32.5196
-33.0725
-32.7532
-32.5124
-34.228
-33.7424
29.1389
49.2986
0.322785
2.15297
1.1089
0.30641
-0.514664
2.91705
5.76904
2.0233
0.243359
-0.98903
3.46279
58.3345
4.41898
152.98
117.995
125.392
115.189
95.8588
100.575
86.189
97.1607
1.93762
50.8053
-3.21461
36.8361
16.9283
14.5529
16.9309
14.651
15.5627
13.5785
14.9438
13.4845
1.88837
-0.888581
-2.15759
-16.9819
55.1936
-15.5347
18.129
1.33781
53.9251
-20.3386
8.38027
214.11
322.38
215.213
340.099
207.811
289.362
236.446
329.027
-10.3029
19.797
-16.2185
14.6547
27.4978
11.8121
-6.81927
27.9229
168.877
256.97
105.051
205.26
209.983
258.3
124.108
217.687
-6.19733
136.669
147.412
149.45
149.245
119.023
131.721
103.786
126.805
-10.8149
151.168
159.26
102.87
134.145
108.214
140.491
67.4813
115.955
166.012
152.215
164.321
148.292
156.132
146.263
153.815
141.685
74.3311
158.805
88.5288
82.0508
52.3518
95.8512
57.6951
2.16602
-2.67695
-3.28213
15.7123
69.7725
61.8752
63.3514
36.4878
48.7551
32.5319
44.8377
5.6648
8.22465
3.46947
-1.61885
37.2658
0.541997
35.5593
125.145
96.5146
61.1415
81.6967
81.6942
65.478
41.0592
62.1124
8.36156
1.17337
-0.292517
2.49017
-4.1217
-6.28823
0.763358
-5.03723
0.323065
-7.84931
9.72297
-5.46033
-7.01996
-6.16232
-3.45439
-3.76101
-7.69852
-6.71107
-3.57281
-3.97596
-3.86235
-3.80851
-3.86888
-3.85639
-4.06132
-3.96896
-4.05908
-4.0223
14.2322
-9.52739
13.2432
1.39876
54.3244
4.33059
95.1991
6.53412
169.486
26.6553
139.117
26.658
135.912
26.656
110.211
26.6589
-14.2031
-26.6289
5.74227
-6.23613
48.0145
10.1156
58.2871
26.4328
73.2054
72.4284
72.4395
72.8578
72.8515
177.249
151.708
165.678
157.75
237.486
176.235
236.925
200.663
76.9883
72.9374
72.5062
72.4475
72.4517
72.8499
72.8523
74.1109
72.7391
72.4621
70.08
72.6532
69.9688
72.2931
69.9411
72.5256
69.8441
43.4259
2.47361
55.0474
-4.44055
36.9722
32.1096
26.6655
5.16988
26.6694
72.429
72.4547
72.4288
72.4279
29.9021
57.0605
72.4281
72.428
40.1142
54.4191
72.4582
74.1309
74.1226
62.7971
74.2717
38.2508
45.9564
88.1145
99.5412
51.791
59.2042
74.1673
72.4736
72.4809
72.481
68.6844
74.1229
71.5506
71.5503
68.4073
60.3174
-22.3013
62.2347
-23.4339
58.9864
-19.2278
-20.8983
-21.4183
-23.2155
-18.9246
-20.5066
-20.7518
-22.4891
61.2344
-33.2786
-35.7558
-30.7822
-34.0016
-32.207
-34.5732
-29.6215
-32.6993
67.0231
67.3251
66.8432
67.0476
66.9478
67.2521
66.7858
67.0056
-2.14245
53.4575
3.62438
59.6913
43.9566
58.8597
33.8979
13.7659
-15.288
33.9176
20.8921
12.9973
50.6409
23.5185
-48.9564
-56.7001
-6.70422
-17.4078
-74.6655
-83.4195
19.295
11.8683
-56.8656
-1.51015
-36.764
-16.7148
-74.3535
-30.4237
-68.5234
35.4701
24.1336
10.7708
-18.7283
30.4079
16.467
-12.1716
-49.4896
34.9906
59.6685
-13.0205
9.16388
41.5998
71.801
-26.3075
6.76777
-2.72117
-28.5503
-5.26915
-24.0036
-48.3837
-91.3031
-37.6983
-94.5246
-51.4477
-88.25
-65.8109
-119.058
-117.694
-142.623
-147.038
-185.901
7.5524
-3.3765
-45.9793
-78.1447
2.11702
2.66175
-54.276
-75.6054
34.3815
70.8475
-41.0554
6.842
30.2658
63.6123
-52.325
-11.0726
-100.484
-143.219
-102.339
-161.158
-104.332
-144.375
-117.704
-170.56
-152.097
-145.177
-193.992
-196.683
-156.959
-145.451
-201.081
-195.403
61.7428
52.6776
15.242
16.1592
62.4694
52.9647
8.61843
11.2511
64.9838
-115.615
-116.073
-145.93
-143.102
-166.84
-159.55
-206.167
-192.318
-52.1849
-41.2364
-68.0359
-53.9391
-65.0456
-48.087
-81.661
-60.3463
64.1542
58.4032
22.5568
28.8615
61.994
57.8558
23.8454
32.1423
70.1951
-141.444
-128.87
-183.175
-161.678
-125.809
-116.158
-164.475
-144.907
-47.0245
-32.6609
-61.7329
-43.1857
-39.6783
-27.48
-52.5383
-36.4334
28.8501
61.8276
13.5888
61.5678
65.9849
88.7343
51.0646
89.7598
86.2989
6.71862
59.6947
38.95
41.3229
43.847
76.5037
46.3154
22.6598
20.9491
4.51862
33.8398
20.3461
-36.0872
10.6775
-13.405
13.7682
-18.9727
10.7327
-15.3255
-15.3909
-65.9233
-21.0219
-51.4963
-115.069
-7.06446
-64.8157
-101.436
-145.642
-41.5616
-82.8359
-115.316
-30.7654
-62.9604
-7.92292
-109.696
-6.62787
-57.9391
14.1518
3.99025
53.0234
8.10872
48.7223
40.3862
83.9823
42.9111
79.7607
79.7268
-0.163088
0.0200197
-0.288293
-0.844131
-1.54503
-0.45913
-0.105141
-1.05036
-1.96948
-2.78936
0.465975
0.874961
-0.911942
-8.01117
-3.02847
-29.3806
-6.80574
-21.5563
-11.96
-6.50869
-5.70067
-5.4628
-9.22619
62.388
42.9907
51.0987
45.0505
56.2239
31.9211
72.5915
45.0306
-10.4907
60.6835
57.2469
3.5102
33.4906
104.159
65.6094
29.9401
43.8119
-4.30943
-67.1393
-140.616
-68.4533
-112.279
-155.08
-205.61
-147.606
-191.965
-9.79331
-43.0358
-85.1846
-106.59
-100.529
-86.0118
-98.9478
-98.4314
-98.8534
-21.2318
-33.3611
-18.6271
-31.5956
-86.7566
-60.124
-77.0306
-59.1352
-21.5422
-13.0111
-9.09091
-1.1319
-12.3744
-2.04709
-16.9073
-14.6072
-10.5461
-6.94987
-12.4848
-25.3856
-30.953
-8.05963
-14.8332
-39.27
-48.0442
6.9724
-29.5993
-29.5798
-14.9251
-8.71277
4.21491
-18.0915
-29.9534
-7.82149
-24.3012
35.527
14.6194
37.8427
36.173
-3.67426
-4.42508
5.13573
-0.196883
58.6521
41.742
136.02
26.6575
134.781
26.6603
107.624
26.6523
81.4411
26.6539
24.0964
40.4706
27.5343
97.9548
26.6449
84.7098
26.6415
108.853
26.6407
110.005
26.6368
72.8915
72.8833
72.8263
72.8279
156.622
90.5022
72.8253
72.8268
72.8361
339.818
251.863
331.718
318.735
392.784
299.303
422.917
393.62
106.337
87.4845
116.741
88.4959
93.2114
64.9219
115.583
73.3324
104.458
58.6185
72.8226
72.8235
-50.2438
-62.244
72.8188
72.82
72.8269
419.268
390.276
453.139
451.566
407.509
402.781
478.047
482.18
100.076
10.99
174.594
58.2596
83.9659
10.0124
164.446
58.817
72.8407
72.8419
74.1095
70.5043
72.8309
72.8321
74.1292
73.5322
84.0575
58.6786
71.8201
71.9341
74.8668
43.5276
72.6982
55.9948
35.7008
29.4331
26.6714
13.9964
26.6781
26.6769
-19.0115
-11.514
26.6663
26.6753
102.23
59.4933
36.4597
26.7096
26.6289
26.7014
26.621
81.4188
26.6292
75.964
26.623
-3.8854
-8.18154
7.17781
-31.0468
23.9593
-4.69954
36.5866
-16.081
130.149
26.6201
99.3972
63.1206
52.4524
26.6209
-7.39819
39.4681
74.1258
74.124
74.1272
74.1221
205.34
171.734
74.1262
74.1243
74.1122
102.597
149.782
74.5587
115.089
130.787
216.041
100.423
179.823
109.212
84.1347
92.915
80.8599
129.289
84.8896
117.849
82.9725
225.626
193.626
74.1299
74.1265
316.417
325.998
74.1468
74.1352
74.1131
165.618
272.368
139.742
247.97
199.244
304.193
191.611
296.799
141.537
83.3076
139.03
84.6342
144.598
83.8484
152.277
87.8512
74.1187
77.6367
77.6367
74.0827
74.1343
77.6365
77.6365
74.3433
53.1938
77.5768
52.8244
83.5568
51.9258
61.2115
52.2029
70.9926
66.1487
5.22907
-19.0805
13.0701
8.94374
-1.99356
-8.38034
6.09858
70.0052
52.8074
9.47773
15.7047
-7.58503
-63.9997
-17.6769
28.8993
48.7398
-85.1204
14.2312
-17.9831
36.4204
-1.59499
51.9371
28.1643
35.9588
-23.9633
-51.8434
58.0863
101.652
22.6034
6.67262
37.3774
48.868
-48.4344
-38.308
60.961
54.436
-26.0279
-29.7743
-58.4104
-111.301
-79.9674
-143.092
0.785301
-50.3153
-30.571
-91.9382
-143.187
-149.122
-180.694
-184.065
-106.77
-123.054
-147.92
-162.136
95.6521
155.667
66.5724
65.226
129.417
208.007
84.5728
104.429
98.9821
69.6124
21.0361
6.34079
138.441
92.6008
67.579
50.7327
31.3769
-6.56236
-26.5996
-67.0526
35.962
14.8506
-33.899
-61.3283
-59.1295
-75.9201
-113.716
-125.632
-20.1783
-37.2762
-89.4055
-97.1901
58.0496
56.0542
17.9062
36.3999
57.5466
55.548
23.545
38.1021
53.3133
-105.281
-86.2066
-136.401
-106.523
-88.1869
-77.1888
-116.097
-93.4683
-2.60247
11.8674
-9.67079
7.90028
3.8844
16.4248
-1.6281
13.6503
56.7947
54.4973
-57.7726
-51.73
-81.1923
-63.984
-42.18
-43.745
-63.2714
-53.5996
43.9196
107.885
107.733
107.375
107.321
108.127
107.857
107.795
107.546
89.2669
16.4362
21.2988
7.6229
39.9944
7.1062
-23.0841
7.31559
8.864
-103.537
-147.194
-32.9086
-82.4325
-50.0191
-110.568
-60.309
-94.9405
-79.7428
-117.815
-93.1349
-105.161
-141.678
-37.1848
-77.4909
-77.8262
31.8305
-34.3526
48.6524
-47.2815
62.7556
-12.0047
77.6456
71.5555
103.51
74.3228
97.9596
91.6716
111.444
95.7833
107.934
89.7418
-0.512272
-1.17814
-1.35046
-1.86086
-2.50937
-4.21426
-4.79417
-3.77791
-4.06643
-4.50239
-2.43725
-72.9146
-10.5216
-80.7305
-79.9928
-79.6157
-78.7197
-83.9134
-82.2159
-86.3039
-82.4052
-10.6939
-67.0545
-19.2235
-143.828
-137.282
-133.126
-136.369
-132.024
-135.49
-104.584
-133.995
-38.8472
-32.1866
-40.8892
-34.0056
-37.6434
-32.1805
-41.842
-34.52
-13.7249
-10.1087
-8.45394
7.52768
-19.9891
-3.75591
-39.7619
16.8931
-33.7231
-18.9476
-54.3964
-199.413
-234.526
-190.673
-228.19
-213.124
-246.27
-207.602
-237.691
0.60265
-46.6594
-23.8338
-3.34892
-13.0192
-44.0005
-43.0309
-18.2769
-197.827
-213.911
-223.889
-221.04
-188.306
-207.278
-171.508
-190.655
6.77772
-31.1418
3.41807
-52.4588
-19.1346
-78.7084
-50.3017
-88.3766
-247.387
-337.607
-251.359
-328.488
-226.412
-350.149
-272.464
-344.707
-5.18109
-42.1788
-36.0507
-23.5646
-10.236
-76.0519
-23.1418
-41.5466
-232.512
-289.532
-202.289
-236.091
-262.617
-308.968
-242.931
-258.041
-160.091
-125.114
-138.618
-125.29
-201.031
-195.186
-190.527
-188.488
-200.021
-193.936
-190.91
-187.752
-135.758
-170.787
-170.639
-167.406
-169.249
-171.371
-170.376
-168.018
-169.093
-145.237
-41.2424
-40.6995
-41.3768
-41.0054
-41.1463
-40.568
-41.0405
-40.729
-21.3443
-13.8387
-27.1515
-6.04992
-19.1495
-7.42701
-23.0127
-9.85242
-17.6196
-16.0304
-22.5524
-15.5305
-24.1711
-48.3061
11.5031
-11.2261
8.60846
-10.8276
26.7711
1.2618
38.6608
6.92257
-21.6973
-27.2898
-63.2946
-64.8683
-64.4599
-66.1779
-59.6987
-63.0932
-61.1165
-64.0608
-47.6384
-25.9162
-15.1682
4.1779
-13.2328
-21.6657
-17.8016
-10.7952
-58.2746
-60.2486
-57.0439
-53.6842
-9.02803
-8.17594
-8.94192
-8.20488
-7.69464
-7.20575
-7.47976
-7.1642
-5.68714
-5.4991
-5.71351
-5.58956
-5.63941
-5.51006
-5.66007
-5.60519
-4.04275
24.2588
25.5147
25.5084
109.534
26.6406
128.732
26.6383
146.588
26.6443
173.778
26.643
22.5641
56.5174
27.5425
150.349
26.6495
158.064
26.649
110.146
26.655
108.072
26.6555
-60.8957
-64.4667
72.8144
72.8156
-38.4103
-44.2994
72.8108
72.8121
72.818
395.655
394.833
473.082
473.666
397.185
390.723
475.501
464.859
78.9993
17.5929
156.446
66.08
92.349
34.2007
165.868
80.2321
79.2593
65.0907
72.8078
72.8085
99.3709
80.0113
72.806
72.8067
72.8107
272.786
185.655
393.375
300.94
320.913
201.472
419.194
304.985
81.2956
75.414
92.5818
79.2743
81.9276
76.7132
90.3039
80.6011
72.8207
72.8217
74.1715
74.0375
72.8119
72.8116
74.1943
69.1048
78.8865
-25.1347
82.435
-9.53501
68.158
67.9532
69.2307
68.8189
68.2302
67.8904
69.1116
68.6091
-50.4277
79.8854
-40.069
18.5834
25.6857
98.4621
26.6336
45.2373
26.6282
86.3616
26.6405
37.9186
26.6379
-12.8683
0.162628
26.6256
-30.503
53.4244
18.7685
26.6369
-2.95299
86.4367
25.4138
200.341
26.649
91.2666
26.6493
102.769
26.6569
9.25313
26.6587
-15.6759
11.8853
26.6499
11.106
106.97
-26.6719
26.6609
13.9008
118.822
350.101
331.557
74.1672
74.1606
345.605
329.565
74.1637
74.1682
74.0191
74.017
74.1752
74.1859
116.228
78.8886
74.1809
74.1842
235.688
339.689
242.542
346.109
284.056
422.508
300.471
432.416
169.652
99.1185
197.121
114.97
334.078
224.462
352.342
243.245
209.551
164.124
74.161
74.1769
188.967
153.235
74.1752
74.1927
103.368
87.2549
74.1913
74.1871
111.219
139.819
74.2076
74.2019
319.393
490.235
349.952
502.504
281.224
448.431
357.175
508.558
433.258
318.691
448.322
335.045
411.803
310.053
446.253
332.184
74.1753
48.4003
48.4003
48.4
62.9034
56.2378
48.4009
48.4001
79.2906
57.8012
127.098
128.717
128.684
130.978
127.677
129.256
129.378
131.495
74.2031
48.9518
48.9452
48.9385
144.6
72.9763
48.9453
48.9385
144.849
72.9847
46.3928
46.6014
-8.84604
75.8496
19.5483
42.593
-33.8435
42.6665
-7.01195
42.9232
-10.8395
-33.1119
51.2751
-13.0184
17.0894
-10.9061
61.6393
-17.5273
0.86746
-13.3662
10.0477
-22.4536
-7.71541
63.3374
-13.6084
-5.12208
-7.57366
81.0251
-21.5411
16.9398
-3.77991
-43.9984
164.416
255.596
86.5666
128.332
194.172
308.569
84.5683
145.523
201.894
160.899
115.063
105.519
282.658
222.947
148.969
136.619
24.2969
20.3691
-36.3903
-55.4005
11.7546
18.1456
-48.3894
-60.351
6.99835
-1.42206
-68.088
-64.923
18.5729
13.4419
-63.1446
-55.3443
227.096
349.768
83.7889
155.763
249.055
355.759
93.6165
151.797
328.76
252.322
164.387
140.487
309.567
236.738
149.638
129.107
-7.12514
8.10587
-66.9346
-73.6362
-20.5042
-8.41795
-85.5532
-93.9132
17.674
14.6925
-69.1594
-61.6242
2.14075
2.96081
-83.4772
-71.1183
135.867
114.584
108.975
102.182
153.42
128.611
124.17
115.869
139.011
-3.2955
-4.74404
-29.0496
-17.2067
3.74033
-0.552561
-21.3733
-12.7143
67.0636
88.8308
60.4575
70.1623
55.9342
77.9518
54.8433
60.4805
49.7345
46.6014
-18.4604
42.2322
79.8063
69.1701
77.1203
90.2558
59.5908
40.9189
47.4888
60.5056
66.1663
5.27359
-92.5456
-68.7984
-30.247
-33.7718
-84.1121
-69.3645
-46.3719
-46.7975
-19.2956
62.0109
7.34568
76.0359
-22.3335
43.6707
-1.17421
57.2976
82.5998
95.3098
92.2883
99.4241
60.5739
72.807
71.5913
77.8162
72.3719
-0.320067
-0.643964
-1.85417
-2.60985
-3.24612
-2.5324
-6.27889
-5.77769
-5.78274
-5.81877
-10.05
-40.9774
-20.4663
-35.1964
-1.43743
-55.7205
-4.68438
-48.5237
-64.9554
-84.4855
-67.3076
-41.458
-63.2854
-63.0323
-63.589
-32.609
-32.0628
-32.633
-32.186
-32.1353
-31.6329
-32.1788
-31.8078
-17.9785
-12.9511
-10.2931
-16.7504
-101.085
-156.11
-138.214
-149.538
-154.812
-173.251
-130.24
-155.826
-35.3061
-116.972
-107.651
-93.6747
-91.2169
-93.9221
-107.636
-93.083
-100.633
-1.32186
-114.148
16.4851
-16.5198
9.42559
-53.4814
-9.85406
-4.65917
-183.5
-180.302
-126.419
-156.488
-170.134
-186.833
-114.462
-153.273
-7.96515
-19.2246
4.95455
-20.4399
-6.39573
31.6796
-19.9584
-14.8693
-111.224
-146.64
-148.916
-155.314
-114.555
-150.113
-197.521
-171.643
-97.0155
-86.5439
-91.4082
-83.0222
-96.5962
-81.3615
-89.3301
-74.8658
-38.9481
-23.0631
-15.4286
-35.1457
-14.0107
-13.7188
-15.3544
-10.4426
-44.8574
-3.68241
-41.4225
-52.4483
-37.6833
-24.8819
-16.2734
0.686543
-7.32052
-6.65289
-4.23676
-5.65628
-4.8871
-4.79753
-1.14779
-4.15464
-4.38991
-5.52607
-8.81544
13.1382
75.1921
32.1972
26.6643
6.09465
79.0565
20.9618
26.6667
72.8048
72.8067
197.778
148.412
205.507
159.872
74.1971
74.2046
74.2038
74.2102
74.2234
72.8039
72.8061
40.1466
58.7192
72.807
72.8062
74.1992
78.6765
72.8062
79.1386
78.6765
75.1987
-13.0825
-14.3759
-14.9009
-16.2719
-11.1733
-13.3377
-14.0816
-15.7104
4.81976
23.2119
26.6657
-2.37413
26.6591
26.6672
46.984
119.299
26.6666
26.671
52.6449
132.223
36.9729
26.6727
26.6678
26.6611
26.6634
15.8712
45.4758
-9.4404
30.004
16.3281
43.2388
-13.0202
-10.5743
-5.73252
52.9807
-5.76093
-4.69697
35.9489
91.0394
31.2885
116.53
-7.18085
68.3922
0.980093
75.2969
74.2154
74.2112
50.5929
50.5779
286.977
388.538
50.5873
50.5717
248.536
310.532
48.1595
48.1487
296.356
199.913
48.1512
48.1426
223.585
140.191
50.5897
50.5686
50.5965
50.5752
-94.6731
-145.499
34.1865
-33.1676
48.1517
48.1502
48.1505
48.1496
60.2473
61.7547
59.4769
60.2036
130.687
126.696
169.914
153.053
98.8409
92.2255
96.3209
94.4597
50.1747
74.2051
52.2229
52.2229
47.924
52.2229
46.8047
47.5888
46.024
-4.81659
21.1335
-18.2097
25.3697
102.183
0.0299685
50.915
35.1567
125.566
22.3973
87.7902
0.251968
-30.3587
-4.32095
23.3865
0.357965
28.138
240.679
300.948
104.27
127.777
209.647
231.997
103.001
99.0908
172.633
103.945
83.8267
63.167
120.656
76.7117
62.1876
51.3215
-17.154
-20.3802
-87.712
-102.27
-7.84019
-25.3445
-76.4835
-97.5705
-26.2431
-25.7053
-95.2025
-81.2383
-38.8
-40.6392
-96.7356
-87.1325
104.518
86.7943
44.6362
37.42
36.7912
40.0192
12.7599
17.6071
57.1144
51.1083
46.2601
45.8309
46.8161
47.0091
40.3946
42.6491
-4.72089
-37.4988
-49.9441
-84.3158
-1.69401
-32.9955
-22.1938
-58.6093
-82.7147
-0.716676
-7.80917
-6.28153
-9.71102