# vtk DataFile Version 3.0
Gravity effects
ASCII
DATASET UNSTRUCTURED_GRID

POINTS	1681	double
0	0	-0.1
50	0	-0.1
100	0	-0.1
150	0	-0.1
200	0	-0.1
250	0	-0.1
300	0	-0.1
350	0	-0.1
400	0	-0.1
450	0	-0.1
500	0	-0.1
550	0	-0.1
600	0	-0.1
650	0	-0.1
700	0	-0.1
750	0	-0.1
800	0	-0.1
850	0	-0.1
900	0	-0.1
950	0	-0.1
1000	0	-0.1
1050	0	-0.1
1100	0	-0.1
1150	0	-0.1
1200	0	-0.1
1250	0	-0.1
1300	0	-0.1
1350	0	-0.1
1400	0	-0.1
1450	0	-0.1
1500	0	-0.1
1550	0	-0.1
1600	0	-0.1
1650	0	-0.1
1700	0	-0.1
1750	0	-0.1
1800	0	-0.1
1850	0	-0.1
1900	0	-0.1
1950	0	-0.1
2000	0	-0.1
0	50	-0.1
50	50	-0.1
100	50	-0.1
150	50	-0.1
200	50	-0.1
250	50	-0.1
300	50	-0.1
350	50	-0.1
400	50	-0.1
450	50	-0.1
500	50	-0.1
550	50	-0.1
600	50	-0.1
650	50	-0.1
700	50	-0.1
750	50	-0.1
800	50	-0.1
850	50	-0.1
900	50	-0.1
950	50	-0.1
1000	50	-0.1
1050	50	-0.1
1100	50	-0.1
1150	50	-0.1
1200	50	-0.1
1250	50	-0.1
1300	50	-0.1
1350	50	-0.1
1400	50	-0.1
1450	50	-0.1
1500	50	-0.1
1550	50	-0.1
1600	50	-0.1
1650	50	-0.1
1700	50	-0.1
1750	50	-0.1
1800	50	-0.1
1850	50	-0.1
1900	50	-0.1
1950	50	-0.1
2000	50	-0.1
0	100	-0.1
50	100	-0.1
100	100	-0.1
150	100	-0.1
200	100	-0.1
250	100	-0.1
300	100	-0.1
350	100	-0.1
400	100	-0.1
450	100	-0.1
500	100	-0.1
550	100	-0.1
600	100	-0.1
650	100	-0.1
700	100	-0.1
750	100	-0.1
800	100	-0.1
850	100	-0.1
900	100	-0.1
950	100	-0.1
1000	100	-0.1
1050	100	-0.1
1100	100	-0.1
1150	100	-0.1
1200	100	-0.1
1250	100	-0.1
1300	100	-0.1
1350	100	-0.1
1400	100	-0.1
1450	100	-0.1
1500	100	-0.1
1550	100	-0.1
1600	100	-0.1
1650	100	-0.1
1700	100	-0.1
1750	100	-0.1
1800	100	-0.1
1850	100	-0.1
1900	100	-0.1
1950	100	-0.1
2000	100	-0.1
0	150	-0.1
50	150	-0.1
100	150	-0.1
150	150	-0.1
200	150	-0.1
250	150	-0.1
300	150	-0.1
350	150	-0.1
400	150	-0.1
450	150	-0.1
500	150	-0.1
550	150	-0.1
600	150	-0.1
650	150	-0.1
700	150	-0.1
750	150	-0.1
800	150	-0.1
850	150	-0.1
900	150	-0.1
950	150	-0.1
1000	150	-0.1
1050	150	-0.1
1100	150	-0.1
1150	150	-0.1
1200	150	-0.1
1250	150	-0.1
1300	150	-0.1
1350	150	-0.1
1400	150	-0.1
1450	150	-0.1
1500	150	-0.1
1550	150	-0.1
1600	150	-0.1
1650	150	-0.1
1700	150	-0.1
1750	150	-0.1
1800	150	-0.1
1850	150	-0.1
1900	150	-0.1
1950	150	-0.1
2000	150	-0.1
0	200	-0.1
50	200	-0.1
100	200	-0.1
150	200	-0.1
200	200	-0.1
250	200	-0.1
300	200	-0.1
350	200	-0.1
400	200	-0.1
450	200	-0.1
500	200	-0.1
550	200	-0.1
600	200	-0.1
650	200	-0.1
700	200	-0.1
750	200	-0.1
800	200	-0.1
850	200	-0.1
900	200	-0.1
950	200	-0.1
1000	200	-0.1
1050	200	-0.1
1100	200	-0.1
1150	200	-0.1
1200	200	-0.1
1250	200	-0.1
1300	200	-0.1
1350	200	-0.1
1400	200	-0.1
1450	200	-0.1
1500	200	-0.1
1550	200	-0.1
1600	200	-0.1
1650	200	-0.1
1700	200	-0.1
1750	200	-0.1
1800	200	-0.1
1850	200	-0.1
1900	200	-0.1
1950	200	-0.1
2000	200	-0.1
0	250	-0.1
50	250	-0.1
100	250	-0.1
150	250	-0.1
200	250	-0.1
250	250	-0.1
300	250	-0.1
350	250	-0.1
400	250	-0.1
450	250	-0.1
500	250	-0.1
550	250	-0.1
600	250	-0.1
650	250	-0.1
700	250	-0.1
750	250	-0.1
800	250	-0.1
850	250	-0.1
900	250	-0.1
950	250	-0.1
1000	250	-0.1
1050	250	-0.1
1100	250	-0.1
1150	250	-0.1
1200	250	-0.1
1250	250	-0.1
1300	250	-0.1
1350	250	-0.1
1400	250	-0.1
1450	250	-0.1
1500	250	-0.1
1550	250	-0.1
1600	250	-0.1
1650	250	-0.1
1700	250	-0.1
1750	250	-0.1
1800	250	-0.1
1850	250	-0.1
1900	250	-0.1
1950	250	-0.1
2000	250	-0.1
0	300	-0.1
50	300	-0.1
100	300	-0.1
150	300	-0.1
200	300	-0.1
250	300	-0.1
300	300	-0.1
350	300	-0.1
400	300	-0.1
450	300	-0.1
500	300	-0.1
550	300	-0.1
600	300	-0.1
650	300	-0.1
700	300	-0.1
750	300	-0.1
800	300	-0.1
850	300	-0.1
900	300	-0.1
950	300	-0.1
1000	300	-0.1
1050	300	-0.1
1100	300	-0.1
1150	300	-0.1
1200	300	-0.1
1250	300	-0.1
1300	300	-0.1
1350	300	-0.1
1400	300	-0.1
1450	300	-0.1
1500	300	-0.1
1550	300	-0.1
1600	300	-0.1
1650	300	-0.1
1700	300	-0.1
1750	300	-0.1
1800	300	-0.1
1850	300	-0.1
1900	300	-0.1
1950	300	-0.1
2000	300	-0.1
0	350	-0.1
50	350	-0.1
100	350	-0.1
150	350	-0.1
200	350	-0.1
250	350	-0.1
300	350	-0.1
350	350	-0.1
400	350	-0.1
450	350	-0.1
500	350	-0.1
550	350	-0.1
600	350	-0.1
650	350	-0.1
700	350	-0.1
750	350	-0.1
800	350	-0.1
850	350	-0.1
900	350	-0.1
950	350	-0.1
1000	350	-0.1
1050	350	-0.1
1100	350	-0.1
1150	350	-0.1
1200	350	-0.1
1250	350	-0.1
1300	350	-0.1
1350	350	-0.1
1400	350	-0.1
1450	350	-0.1
1500	350	-0.1
1550	350	-0.1
1600	350	-0.1
1650	350	-0.1
1700	350	-0.1
1750	350	-0.1
1800	350	-0.1
1850	350	-0.1
1900	350	-0.1
1950	350	-0.1
2000	350	-0.1
0	400	-0.1
50	400	-0.1
100	400	-0.1
150	400	-0.1
200	400	-0.1
250	400	-0.1
300	400	-0.1
350	400	-0.1
400	400	-0.1
450	400	-0.1
500	400	-0.1
550	400	-0.1
600	400	-0.1
650	400	-0.1
700	400	-0.1
750	400	-0.1
800	400	-0.1
850	400	-0.1
900	400	-0.1
950	400	-0.1
1000	400	-0.1
1050	400	-0.1
1100	400	-0.1
1150	400	-0.1
1200	400	-0.1
1250	400	-0.1
1300	400	-0.1
1350	400	-0.1
1400	400	-0.1
1450	400	-0.1
1500	400	-0.1
1550	400	-0.1
1600	400	-0.1
1650	400	-0.1
1700	400	-0.1
1750	400	-0.1
1800	400	-0.1
1850	400	-0.1
1900	400	-0.1
1950	400	-0.1
2000	400	-0.1
0	450	-0.1
50	450	-0.1
100	450	-0.1
150	450	-0.1
200	450	-0.1
250	450	-0.1
300	450	-0.1
350	450	-0.1
400	450	-0.1
450	450	-0.1
500	450	-0.1
550	450	-0.1
600	450	-0.1
650	450	-0.1
700	450	-0.1
750	450	-0.1
800	450	-0.1
850	450	-0.1
900	450	-0.1
950	450	-0.1
1000	450	-0.1
1050	450	-0.1
1100	450	-0.1
1150	450	-0.1
1200	450	-0.1
1250	450	-0.1
1300	450	-0.1
1350	450	-0.1
1400	450	-0.1
1450	450	-0.1
1500	450	-0.1
1550	450	-0.1
1600	450	-0.1
1650	450	-0.1
1700	450	-0.1
1750	450	-0.1
1800	450	-0.1
1850	450	-0.1
1900	450	-0.1
1950	450	-0.1
2000	450	-0.1
0	500	-0.1
50	500	-0.1
100	500	-0.1
150	500	-0.1
200	500	-0.1
250	500	-0.1
300	500	-0.1
350	500	-0.1
400	500	-0.1
450	500	-0.1
500	500	-0.1
550	500	-0.1
600	500	-0.1
650	500	-0.1
700	500	-0.1
750	500	-0.1
800	500	-0.1
850	500	-0.1
900	500	-0.1
950	500	-0.1
1000	500	-0.1
1050	500	-0.1
1100	500	-0.1
1150	500	-0.1
1200	500	-0.1
1250	500	-0.1
1300	500	-0.1
1350	500	-0.1
1400	500	-0.1
1450	500	-0.1
1500	500	-0.1
1550	500	-0.1
1600	500	-0.1
1650	500	-0.1
1700	500	-0.1
1750	500	-0.1
1800	500	-0.1
1850	500	-0.1
1900	500	-0.1
1950	500	-0.1
2000	500	-0.1
0	550	-0.1
50	550	-0.1
100	550	-0.1
150	550	-0.1
200	550	-0.1
250	550	-0.1
300	550	-0.1
350	550	-0.1
400	550	-0.1
450	550	-0.1
500	550	-0.1
550	550	-0.1
600	550	-0.1
650	550	-0.1
700	550	-0.1
750	550	-0.1
800	550	-0.1
850	550	-0.1
900	550	-0.1
950	550	-0.1
1000	550	-0.1
1050	550	-0.1
1100	550	-0.1
1150	550	-0.1
1200	550	-0.1
1250	550	-0.1
1300	550	-0.1
1350	550	-0.1
1400	550	-0.1
1450	550	-0.1
1500	550	-0.1
1550	550	-0.1
1600	550	-0.1
1650	550	-0.1
1700	550	-0.1
1750	550	-0.1
1800	550	-0.1
1850	550	-0.1
1900	550	-0.1
1950	550	-0.1
2000	550	-0.1
0	600	-0.1
50	600	-0.1
100	600	-0.1
150	600	-0.1
200	600	-0.1
250	600	-0.1
300	600	-0.1
350	600	-0.1
400	600	-0.1
450	600	-0.1
500	600	-0.1
550	600	-0.1
600	600	-0.1
650	600	-0.1
700	600	-0.1
750	600	-0.1
800	600	-0.1
850	600	-0.1
900	600	-0.1
950	600	-0.1
1000	600	-0.1
1050	600	-0.1
1100	600	-0.1
1150	600	-0.1
1200	600	-0.1
1250	600	-0.1
1300	600	-0.1
1350	600	-0.1
1400	600	-0.1
1450	600	-0.1
1500	600	-0.1
1550	600	-0.1
1600	600	-0.1
1650	600	-0.1
1700	600	-0.1
1750	600	-0.1
1800	600	-0.1
1850	600	-0.1
1900	600	-0.1
1950	600	-0.1
2000	600	-0.1
0	650	-0.1
50	650	-0.1
100	650	-0.1
150	650	-0.1
200	650	-0.1
250	650	-0.1
300	650	-0.1
350	650	-0.1
400	650	-0.1
450	650	-0.1
500	650	-0.1
550	650	-0.1
600	650	-0.1
650	650	-0.1
700	650	-0.1
750	650	-0.1
800	650	-0.1
850	650	-0.1
900	650	-0.1
950	650	-0.1
1000	650	-0.1
1050	650	-0.1
1100	650	-0.1
1150	650	-0.1
1200	650	-0.1
1250	650	-0.1
1300	650	-0.1
1350	650	-0.1
1400	650	-0.1
1450	650	-0.1
1500	650	-0.1
1550	650	-0.1
1600	650	-0.1
1650	650	-0.1
1700	650	-0.1
1750	650	-0.1
1800	650	-0.1
1850	650	-0.1
1900	650	-0.1
1950	650	-0.1
2000	650	-0.1
0	700	-0.1
50	700	-0.1
100	700	-0.1
150	700	-0.1
200	700	-0.1
250	700	-0.1
300	700	-0.1
350	700	-0.1
400	700	-0.1
450	700	-0.1
500	700	-0.1
550	700	-0.1
600	700	-0.1
650	700	-0.1
700	700	-0.1
750	700	-0.1
800	700	-0.1
850	700	-0.1
900	700	-0.1
950	700	-0.1
1000	700	-0.1
1050	700	-0.1
1100	700	-0.1
1150	700	-0.1
1200	700	-0.1
1250	700	-0.1
1300	700	-0.1
1350	700	-0.1
1400	700	-0.1
1450	700	-0.1
1500	700	-0.1
1550	700	-0.1
1600	700	-0.1
1650	700	-0.1
1700	700	-0.1
1750	700	-0.1
1800	700	-0.1
1850	700	-0.1
1900	700	-0.1
1950	700	-0.1
2000	700	-0.1
0	750	-0.1
50	750	-0.1
100	750	-0.1
150	750	-0.1
200	750	-0.1
250	750	-0.1
300	750	-0.1
350	750	-0.1
400	750	-0.1
450	750	-0.1
500	750	-0.1
550	750	-0.1
600	750	-0.1
650	750	-0.1
700	750	-0.1
750	750	-0.1
800	750	-0.1
850	750	-0.1
900	750	-0.1
950	750	-0.1
1000	750	-0.1
1050	750	-0.1
1100	750	-0.1
1150	750	-0.1
1200	750	-0.1
1250	750	-0.1
1300	750	-0.1
1350	750	-0.1
1400	750	-0.1
1450	750	-0.1
1500	750	-0.1
1550	750	-0.1
1600	750	-0.1
1650	750	-0.1
1700	750	-0.1
1750	750	-0.1
1800	750	-0.1
1850	750	-0.1
1900	750	-0.1
1950	750	-0.1
2000	750	-0.1
0	800	-0.1
50	800	-0.1
100	800	-0.1
150	800	-0.1
200	800	-0.1
250	800	-0.1
300	800	-0.1
350	800	-0.1
400	800	-0.1
450	800	-0.1
500	800	-0.1
550	800	-0.1
600	800	-0.1
650	800	-0.1
700	800	-0.1
750	800	-0.1
800	800	-0.1
850	800	-0.1
900	800	-0.1
950	800	-0.1
1000	800	-0.1
1050	800	-0.1
1100	800	-0.1
1150	800	-0.1
1200	800	-0.1
1250	800	-0.1
1300	800	-0.1
1350	800	-0.1
1400	800	-0.1
1450	800	-0.1
1500	800	-0.1
1550	800	-0.1
1600	800	-0.1
1650	800	-0.1
1700	800	-0.1
1750	800	-0.1
1800	800	-0.1
1850	800	-0.1
1900	800	-0.1
1950	800	-0.1
2000	800	-0.1
0	850	-0.1
50	850	-0.1
100	850	-0.1
150	850	-0.1
200	850	-0.1
250	850	-0.1
300	850	-0.1
350	850	-0.1
400	850	-0.1
450	850	-0.1
500	850	-0.1
550	850	-0.1
600	850	-0.1
650	850	-0.1
700	850	-0.1
750	850	-0.1
800	850	-0.1
850	850	-0.1
900	850	-0.1
950	850	-0.1
1000	850	-0.1
1050	850	-0.1
1100	850	-0.1
1150	850	-0.1
1200	850	-0.1
1250	850	-0.1
1300	850	-0.1
1350	850	-0.1
1400	850	-0.1
1450	850	-0.1
1500	850	-0.1
1550	850	-0.1
1600	850	-0.1
1650	850	-0.1
1700	850	-0.1
1750	850	-0.1
1800	850	-0.1
1850	850	-0.1
1900	850	-0.1
1950	850	-0.1
2000	850	-0.1
0	900	-0.1
50	900	-0.1
100	900	-0.1
150	900	-0.1
200	900	-0.1
250	900	-0.1
300	900	-0.1
350	900	-0.1
[...]
CELL_DATA	1681
SCALARS T_zz double 1
LOOKUP_TABLE table0
-0.444204
-0.485192
-0.527263
-0.529464
-0.525386
-0.543682
-0.568699
-0.567323
-0.578129
-0.56462
-0.560262
-0.558642
-0.542915
-0.532755
-0.487865
-0.447631
-0.439139
-0.403416
-0.387957
-0.369385
-0.336434
-0.326301
-0.298095
-0.267501
-0.240912
-0.212978
-0.173238
-0.14575
-0.113632
-0.073873
-0.0364865
-0.00345215
0.0259039
0.049292
0.0695183
0.0839536
0.0928696
0.0975913
0.09631
0.0925621
0.0903716
-0.496511
-0.490319
-0.522286
-0.549269
-0.582758
-0.612427
-0.600621
-0.591034
-0.605645
-0.593776
-0.563146
-0.555677
-0.518784
-0.490975
-0.459757
-0.42095
-0.409315
-0.377542
-0.361806
-0.362438
-0.369562
-0.346175
-0.336678
-0.329682
-0.316737
-0.291368
-0.271118
-0.232538
-0.191887
-0.145896
-0.0987632
-0.0500384
-0.0103167
0.0254629
0.0574038
0.0772526
0.093177
0.103317
0.106089
0.104238
0.096063
-0.514414
-0.565799
-0.576281
-0.591096
-0.617852
-0.631149
-0.617079
-0.645792
-0.618944
-0.590025
-0.542443
-0.504407
-0.454338
-0.400228
-0.366939
-0.334833
-0.321738
-0.316187
-0.31636
-0.329977
-0.348162
-0.368764
-0.412878
-0.412453
-0.447676
-0.420974
-0.400561
-0.367412
-0.328102
-0.280872
-0.213478
-0.149336
-0.0824833
-0.0263309
0.0214928
0.0586619
0.0833328
0.0999264
0.101895
0.105513
0.103186
-0.568835
-0.596985
-0.613059
-0.625052
-0.66138
-0.647408
-0.660363
-0.635378
-0.584422
-0.545206
-0.463298
-0.404137
-0.311211
-0.231959
-0.181857
-0.146838
-0.137357
-0.163338
-0.204719
-0.260313
-0.323087
-0.404069
-0.497061
-0.576822
-0.602565
-0.645722
-0.657304
-0.625014
-0.591629
-0.508395
-0.402931
-0.309994
-0.206253
-0.123005
-0.0469981
0.0140677
0.0566454
0.0881997
0.108219
0.112317
0.106552
-0.587245
-0.615693
-0.638951
-0.676964
-0.671249
-0.670216
-0.65758
-0.597205
-0.52002
-0.445092
-0.314532
-0.177989
-0.0353698
0.0910903
0.176722
0.225654
0.207959
0.150089
0.0384874
-0.103099
-0.263867
-0.446363
-0.629612
-0.817268
-0.96248
-1.01692
-1.07426
-1.07733
-1.02021
-0.886701
-0.744345
-0.587193
-0.428976
-0.288136
-0.158826
-0.0602233
0.0106137
0.0577821
0.0904676
0.105291
0.109505
-0.609176
-0.637835
-0.659241
-0.679974
-0.67148
-0.662264
-0.625415
-0.553903
-0.41169
-0.237052
-0.0187735
0.224543
0.466149
0.67421
0.827135
0.885229
0.866809
0.712016
0.456566
0.180799
-0.146725
-0.48258
-0.825306
-1.17382
-1.47808
-1.66368
-1.77916
-1.79871
-1.77068
-1.6265
-1.32791
-1.04996
-0.793132
-0.547216
-0.345322
-0.186577
-0.0657226
0.0140438
0.0645161
0.0898902
0.104333
-0.651717
-0.680681
-0.707046
-0.699628
-0.679563
-0.682446
-0.582517
-0.404893
-0.199718
0.0950227
0.452093
0.881048
1.31317
1.69235
1.94075
2.03061
1.9617
1.66532
1.23464
0.676442
0.0812223
-0.530042
-1.16892
-1.7063
-2.27326
-2.61384
-3.00335
-2.97307
-2.96483
-2.61759
-2.25522
-1.84253
-1.37673
-0.957049
-0.60477
-0.35552
-0.173861
-0.0562855
0.0230983
0.0702403
0.0870035
-0.664372
-0.704825
-0.722776
-0.740464
-0.704146
-0.599003
-0.473271
-0.233842
0.12378
0.629665
1.26701
1.9119
2.70546
3.40374
3.88027
3.94636
3.84397
3.19118
2.45053
1.52122
0.47929
-0.578263
-1.7137
-2.59971
-3.6171
-4.25447
-4.92508
-5.07505
-4.8915
-4.2818
-3.66914
-2.96702
-2.15169
-1.50488
-0.986219
-0.601032
-0.328114
-0.151535
-0.0335388
0.0351616
0.0709669
-0.686681
-0.736374
-0.733796
-0.741337
-0.673709
-0.540424
-0.328826
0.0281964
0.579537
1.34063
2.30165
3.54115
4.82327
5.65135
6.66848
7.05349
6.72202
5.56949
4.39809
2.75121
1.10007
-0.661943
-2.40956
-4.10304
-5.70456
-6.72611
-8.09124
-8.34902
-8.08534
-6.97533
-5.73506
-4.64164
-3.36355
-2.28594
-1.47924
-0.943112
-0.518734
-0.26836
-0.10708
-0.00854711
0.0452276
-0.689253
-0.726219
-0.746894
-0.710705
-0.6604
-0.474332
-0.150864
0.35283
1.14128
2.25131
3.90237
5.81135
7.98196
9.58039
11.0752
11.5561
10.5343
9.19912
7.50889
4.73244
1.9233
-0.737412
-3.36853
-6.19974
-8.22146
-10.8319
-12.3208
-12.6915
-12.1808
-11.0407
-9.14286
-7.06312
-5.01973
-3.49447
-2.18119
-1.32386
-0.764084
-0.407241
-0.19936
-0.0633855
0.0118717
-0.755535
-0.763667
-0.75058
-0.729563
-0.613945
-0.368236
0.0412448
0.725218
1.85282
3.50764
5.77539
8.53814
12.2262
15.1374
16.6542
17.6007
17.3201
14.5986
10.9123
7.17162
3.01663
-0.760872
-4.67898
-8.63465
-12.6228
-16.1882
-18.3133
-19.3154
-17.8281
-16.5998
-13.5866
-10.3128
-6.94675
-4.59514
-2.96683
-1.86602
-1.06617
-0.584916
-0.285407
-0.123445
-0.0246545
-0.808381
-0.756183
-0.780318
-0.701377
-0.581117
-0.278457
0.237335
1.04453
2.48062
4.59172
7.65426
12.4154
16.5673
21.5756
24.9521
24.7399
23.586
20.6974
15.9647
10.0296
4.48007
-0.855616
-6.09249
-11.0761
-16.8886
-21.6966
-25.1568
-25.6232
-25.0593
-21.6683
-18.0937
-13.3848
-9.02289
-5.84918
-3.79266
-2.16738
-1.29984
-0.734512
-0.378455
-0.183969
-0.0707456
-0.796438
-0.803678
-0.767645
-0.715282
-0.54646
-0.203785
0.392166
1.3967
3.0602
5.7446
9.96841
14.3358
20.757
26.874
31.0611
32.8061
30.5075
26.4872
19.5979
12.4019
5.79071
-0.932139
-7.43887
-14.1844
-21.2019
-27.389
-30.7801
-32.4555
-31.6699
-28.2304
-21.3967
-15.4416
-11.5555
-7.11611
-4.32416
-2.56448
-1.53319
-0.891928
-0.486305
-0.242099
-0.110219
-0.801334
-0.813066
-0.797036
-0.713817
-0.550081
-0.171062
0.489689
1.63143
3.3785
6.39653
11.0388
17.537
23.3948
31.4699
34.5419
35.9497
34.2711
29.415
21.7432
14.1487
6.29399
-0.988239
-8.4528
-16.4072
-23.9391
-31.5618
-36.5239
-37.5627
-35.3773
-31.9175
-25.1544
-18.8187
-12.5375
-8.05223
-4.64916
-2.95641
-1.72453
-1.00068
-0.565042
-0.29983
-0.148793
-0.833006
-0.832597
-0.796593
-0.741946
-0.54589
-0.163205
0.503204
1.61771
3.70768
6.83334
11.501
17.0602
24.3349
30.647
36.6679
38.7852
36.1664
31.6253
23.09
14.606
6.75052
-1.01605
-8.70713
-16.7099
-25.2034
-32.6878
-38.5504
-38.71
-38.4413
-33.3085
-26.6126
-19.2568
-12.6208
-8.28823
-4.88632
-3.02981
-1.83078
-1.06421
-0.607107
-0.344772
-0.199372
-0.825355
-0.838686
-0.834686
-0.784515
-0.600187
-0.219049
0.44225
1.62238
3.49495
6.35216
10.8398
16.5532
24.9269
30.6325
34.3808
36.0544
34.0323
29.2548
22.1935
13.8771
6.56694
-0.998494
-8.51392
-15.8306
-23.9815
-31.188
-36.6547
-38.2808
-36.7262
-32.8441
-25.1666
-18.6915
-12.4099
-7.75807
-4.8857
-2.93767
-1.86428
-1.05271
-0.630438
-0.377173
-0.220951
-0.83507
-0.864418
-0.87537
-0.805708
-0.648012
-0.315168
0.268482
1.26029
2.91617
5.6138
9.44257
14.7585
20.5467
26.5818
31.0187
31.6416
30.1968
25.7161
18.694
12.3855
5.54026
-1.01234
-7.43266
-14.1252
-21.5559
-27.4704
-31.6676
-32.7831
-32.2168
-27.8138
-22.2885
-16.7998
-10.9581
-7.19395
-4.57855
-2.867
-1.72919
-1.06814
-0.64881
-0.383413
-0.259771
-0.854454
-0.882439
-0.878723
-0.855135
-0.706682
-0.43607
0.05061
0.889611
2.29272
4.47562
7.50185
11.6398
16.0367
20.7153
24.1704
24.4061
23.4596
20.6421
15.6104
9.58463
4.33612
-0.90519
-6.31441
-11.8155
-17.4212
-21.919
-24.8979
-27.0625
-25.109
-22.839
-18.7157
-13.8178
-9.08958
-6.05183
-4.08695
-2.51839
-1.60766
-1.02608
-0.635959
-0.422384
-0.290201
-0.866652
-0.896582
-0.925926
-0.888154
-0.819822
-0.575761
-0.204024
0.46506
1.50856
3.25838
5.25739
8.4444
11.4991
14.9023
16.5344
17.5497
16.0832
13.8464
11.2464
7.09198
3.17083
-0.66526
-4.57698
-8.56797
-12.7496
-15.3976
-18.4072
-19.1636
-18.5999
-15.8899
-13.442
-9.74541
-7.31764
-4.83848
-3.2658
-2.07824
-1.36309
-0.94669
-0.605175
-0.435986
-0.303823
-0.886274
-0.922107
-0.968972
-0.939526
-0.872701
-0.739239
-0.448045
0.033459
0.772695
1.95661
3.48442
5.39459
7.53738
9.43548
10.8411
11.14
10.806
9.34943
7.4197
4.85856
2.41119
-0.171608
-2.79349
-5.51969
-8.02711
-9.70848
-11.6146
-12.0515
-11.8938
-10.7897
-8.94165
-7.19303
-5.16462
-3.55145
-2.46909
-1.76586
-1.17524
-0.823666
-0.585994
-0.432249
-0.337938
-0.887364
-0.904866
-0.946013
-0.985028
-0.968234
-0.885251
-0.699327
-0.349594
0.164213
0.911846
1.88383
3.12986
4.51287
5.54902
6.33614
6.81849
7.0166
6.04836
5.01217
3.68804
2.25998
0.63161
-0.934931
-2.5935
-4.04363
-5.50788
-6.36343
-7.0133
-6.64264
-6.14867
-5.26959
-4.32063
-3.31827
-2.32342
-1.73922
-1.24815
-0.939727
-0.694474
-0.562651
-0.440134
-0.369451
-0.884261
-0.942561
-0.971681
-1.00506
-1.01482
-0.9468
-0.827431
-0.652842
-0.331714
0.132928
0.753999
1.48203
2.26861
2.93626
3.67229
4.02961
4.17734
4.2547
3.85696
3.27439
2.76162
2.09643
1.29826
0.380626
-0.480349
-1.2999
-2.02978
-2.37124
-2.5559
-2.44402
-2.23518
-1.94087
-1.58971
-1.2937
-1.1063
-0.895029
-0.731195
-0.574706
-0.505778
-0.429192
-0.382623
-0.87261
-0.926956
-1.01278
-1.06645
-1.05503
-1.05521
-0.998897
-0.90831
-0.689746
-0.412916
-0.0296585
0.437981
0.999276
1.57387
2.01764
2.68111
3.20201
3.63184
3.98043
4.02633
4.425
4.29128
4.05952
3.76295
3.39855
2.87751
2.36313
1.85916
1.36663
0.858856
0.487898
0.140473
-0.128524
-0.326526
-0.439855
-0.500024
-0.508675
-0.489509
-0.477185
-0.435099
-0.407542
-0.872646
-0.928332
-1.00263
-1.03259
-1.07884
-1.14072
-1.14387
-1.02697
-0.89549
-0.780391
-0.529885
-0.195198
0.223171
0.71642
1.38387
2.03402
3.16872
4.16541
5.41123
6.30131
6.85852
7.86811
7.96562
8.08458
7.9522
7.75314
7.18231
6.70842
5.37731
4.54672
3.41763
2.38871
1.40635
0.68788
0.195828
-0.121098
-0.300778
-0.397748
-0.441595
-0.433672
-0.427043
-0.867038
-0.96005
-0.955504
-1.02622
-1.07037
-1.11665
-1.16891
-1.13541
-1.08752
-0.996957
-0.79431
-0.536516
-0.165062
0.3941
1.17539
2.38342
3.81871
5.5158
7.7597
9.78923
11.6121
12.4387
13.4757
13.7445
14.0996
13.3131
12.7269
12.2398
11.3106
8.7746
6.92409
4.87657
3.1485
1.81296
0.851555
0.24002
-0.112896
-0.301384
-0.414216
-0.440698
-0.45792
-0.811584
-0.895273
-0.952787
-1.02795
-1.06109
-1.16806
-1.17162
-1.18865
-1.13125
-1.12701
-0.980987
-0.719346
-0.308973
0.338004
1.37148
2.83974
5.11616
7.7762
11.2091
14.3903
17.4197
19.3749
20.2921
21.0309
20.3527
21.3302
20.5131
18.1762
16.6955
14.5455
10.8443
7.77601
4.77593
2.92074
1.47936
0.615208
0.0673755
-0.227713
-0.396415
-0.447708
-0.488349
-0.830456
-0.872826
-0.948539
-1.02665
-1.1208
-1.09449
-1.1857
-1.23904
-1.18204
-1.15465
-1.03042
-0.781073
-0.334737
0.413858
1.65197
3.56254
6.58865
10.135
15.1392
19.7513
22.956
25.9393
26.8985
28.306
28.9816
28.5265
28.2169
26.5637
23.7735
19.3151
15.1547
10.4618
6.67479
3.90111
1.96459
0.894354
0.212547
-0.169381
-0.366279
-0.460511
-0.487269
-0.78142
-0.870546
-0.930484
-1.01307
-1.03948
-1.10518
-1.13978
-1.23226
-1.18766
-1.19129
-1.01289
-0.784334
-0.320055
0.526151
1.92413
4.15407
7.72149
12.1367
18.4759
23.6811
29.0755
32.2706
34.052
34.426
35.1241
34.6249
33.5491
31.6511
28.3199
24.0511
18.5349
12.8997
7.93181
4.67945
2.36555
1.0617
0.303958
-0.139953
-0.377975
-0.4875
-0.536514
-0.776865
-0.82694
-0.926626
-0.967735
-1.08341
-1.11003
-1.17093
-1.22072
-1.24992
-1.18287
-1.0577
-0.79714
-0.318887
0.535466
1.925
4.3097
7.84913
12.2835
18.9464
25.3103
30.3274
34.7148
37.7775
35.799
38.3375
37.4052
36.3592
33.9029
30.0948
25.8558
19.4039
12.996
8.21026
4.65082
2.53742
1.15362
0.313153
-0.152264
-0.383072
-0.496185
-0.555302
-0.771684
-0.822293
-0.871257
-0.964522
-1.039
-1.11807
-1.1465
-1.13461
-1.19006
-1.12713
-1.04694
-0.810869
-0.361429
0.471164
1.84498
4.05093
7.28095
11.991
18.1256
23.6597
27.915
31.5501
34.59
34.7781
35.4465
35.2234
34.2303
30.8593
28.4504
23.5567
18.5297
12.6927
7.75266
4.5823
2.36186
1.04068
0.246152
-0.197203
-0.422234
-0.532629
-0.57503
-0.722299
-0.780161
-0.81202
-0.915019
-0.979907
-1.04074
-1.10966
-1.12938
-1.13759
-1.12593
-1.0574
-0.859747
-0.430542
0.264228
1.50921
3.37065
6.16122
10.0202
14.787
19.1187
23.6209
26.5452
28.0371
29.6564
28.3816
29.2537
28.1686
26.6654
24.0831
20.0141
15.22
10.6554
6.60048
3.84
2.05136
0.834885
0.121998
-0.271378
-0.479261
-0.565339
-0.610048
-0.720609
-0.76354
-0.847006
-0.873805
-0.91697
-1.01192
-1.10319
-1.09872
-1.16515
-1.10565
-1.09359
-0.916933
-0.558708
0.00520704
0.96221
2.45242
4.69611
7.34616
10.9037
14.1644
16.8012
19.6339
19.9319
21.074
21.7484
21.0126
20.6665
19.8317
17.0437
14.3885
11.2746
7.65322
5.04861
2.84922
1.42139
0.501965
-0.0495446
-0.37091
-0.53993
-0.592498
-0.618853
-0.667625
-0.720462
-0.789738
-0.861641
-0.959392
-0.977097
-1.03726
-1.09665
-1.1308
-1.14641
-1.12647
-0.948472
-0.720687
-0.274276
0.424292
1.47112
2.96039
4.88428
7.13395
9.27239
11.3495
12.8453
13.5277
14.4221
14.6381
14.2917
13.8853
13.1728
11.1752
9.365
7.41913
5.09386
3.36555
1.89083
0.858586
0.187138
-0.241318
-0.4775
-0.60414
-0.653922
-0.64886
-0.65287
-0.69363
-0.743819
-0.810596
-0.859735
-0.941774
-0.967859
-1.06711
-1.09967
-1.10142
-1.11118
-1.01259
-0.827288
-0.530489
-0.0558498
0.630587
1.59786
2.92214
4.04031
5.57512
6.67194
7.8566
8.42798
8.89288
9.51402
8.70441
8.46775
7.84187
7.02411
6.18778
4.57668
3.25597
1.97803
1.02812
0.345278
-0.118927
-0.40223
-0.584165
-0.623582
-0.669461
-0.668902
-0.636631
-0.658813
-0.742041
-0.767131
-0.833258
-0.905479
-0.945994
-1.01691
-1.04932
-1.07807
-1.09641
-1.05479
-0.962149
-0.772785
-0.452242
0.00870251
0.605836
1.31586
2.12798
3.0742
3.67164
4.29701
4.78866
4.96732
5.2477
4.96781
4.72539
4.56376
3.81608
3.14636
2.44653
1.64326
0.917755
0.346407
-0.0826709
-0.385699
-0.583105
-0.643413
-0.680982
-0.708029
-0.67666
-0.594152
-0.630207
-0.68139
-0.693876
-0.791113
-0.873134
-0.891904
-0.935077
-1.02459
-0.990786
-1.10073
-1.04513
-1.02491
-0.897453
-0.721571
-0.443942
-0.0971407
0.320965
0.79191
1.27301
1.72718
2.06667
2.27951
2.53507
2.5163
2.47245
2.55649
2.25057
1.83251
1.49515
1.00494
0.59464
0.18035
-0.152157
-0.413778
-0.562642
-0.647942
-0.71359
-0.707348
-0.705066
-0.656689
-0.586047
-0.601024
-0.665456
-0.698227
-0.776862
-0.799559
-0.905955
-0.911894
-0.952173
-1.02869
-1.08139
-1.06409
-1.0334
-0.989505
-0.885368
-0.737057
-0.54701
-0.313496
-0.0551364
0.210723
0.460227
0.671022
0.792349
0.916002
0.983467
0.906907
0.930067
0.793811
0.586122
0.369347
0.135513
-0.0986199
-0.315295
-0.498471
-0.615339
-0.726631
-0.751111
-0.775489
-0.738253
-0.694591
-0.669503
-0.511505
-0.570754
-0.628652
-0.675765
-0.721647
-0.783566
-0.813341
-0.90309
-0.944263
-0.975383
-1.0098
-1.01195
-1.05715
-1.01082
-0.991694
-0.916631
-0.828617
-0.715737
-0.572273
-0.428937
-0.292748
-0.166097
-0.0802701
-0.0167956
0.0148216
0.0138761
-0.0182329
-0.0803246
-0.167851
-0.276352
-0.399167
-0.522024
-0.603807
-0.705033
-0.752904
-0.772124
-0.764416
-0.756864
-0.738405
-0.706309
-0.648165
-0.526816
-0.560654
-0.604932
-0.639815
-0.67343
-0.745028
-0.790632
-0.80069
-0.854878
-0.913058
-0.974485
-1.01397
-1.08549
-1.0079
-1.01754
-0.978748
-0.970147
-0.900976
-0.872769
-0.799172
-0.713159
-0.627027
-0.587898
-0.558146
-0.547558
-0.51399
-0.553422
-0.567005
-0.62523
-0.635068
-0.699718
-0.752277
-0.75424
-0.82573
-0.797572
-0.824191
-0.773789
-0.768439
-0.741879
-0.67013
-0.62673
-0.493697
-0.537154
-0.559896
-0.590425
-0.659305
-0.709472
-0.722196
-0.759522
-0.865514
-0.897365
-0.932765
-0.963655
-0.999045
-0.978285
-1.03577
-1.03136
-1.0465
-1.00381
-0.997925
-0.967128
-0.939343
-0.901006
-0.876763
-0.858435
-0.845128
-0.796868
-0.768236
-0.803787
-0.833607
-0.81046
-0.836028
-0.836673
-0.852565
-0.880386
-0.858991
-0.836568
-0.787043
-0.765826
-0.713999
-0.647599
-0.623215
-0.461465
-0.485616
-0.530563
-0.578988
-0.609838
-0.659274
-0.680752
-0.74855
-0.795269
-0.818369
-0.84919
-0.895173
-0.915356
-0.967874
-1.01976
-0.988792
-1.02735
-1.02613
-1.05717
-1.00494
-1.00099
-1.03824
-0.997826
-0.996261
-0.968128
-0.936671
-0.92812
-0.992213
-0.945607
-0.933277
-0.952368
-0.893184
-0.924377
-0.873904
-0.843546
-0.796529
-0.769957
-0.688069
-0.66391
-0.657473
-0.59512

POINT_DATA	1681
SCALARS T_zz double 1
LOOKUP_TABLE table0
-0.444204
-0.485192
-0.527263
-0.529464
-0.525386
-0.543682
-0.568699
-0.567323
-0.578129
-0.56462
-0.560262
-0.558642
-0.542915
-0.532755
-0.487865
-0.447631
-0.439139
-0.403416
-0.387957
-0.369385
-0.336434
-0.326301
-0.298095
-0.267501
-0.240912
-0.212978
-0.173238
-0.14575
-0.113632
-0.073873
-0.0364865
-0.00345215
0.0259039
0.049292
0.0695183
0.0839536
0.0928696
0.0975913
0.09631
0.0925621
0.0903716
-0.496511
-0.490319
-0.522286
-0.549269
-0.582758
-0.612427
-0.600621
-0.591034
-0.605645
-0.593776
-0.563146
-0.555677
-0.518784
-0.490975
-0.459757
-0.42095
-0.409315
-0.377542
-0.361806
-0.362438
-0.369562
-0.346175
-0.336678
-0.329682
-0.316737
-0.291368
-0.271118
-0.232538
-0.191887
-0.145896
-0.0987632
-0.0500384
-0.0103167
0.0254629
0.0574038
0.0772526
0.093177
0.103317
0.106089
0.104238
0.096063
-0.514414
-0.565799
-0.576281
-0.591096
-0.617852
-0.631149
-0.617079
-0.645792
-0.618944
-0.590025
-0.542443
-0.504407
-0.454338
-0.400228
-0.366939
-0.334833
-0.321738
-0.316187
-0.31636
-0.329977
-0.348162
-0.368764
-0.412878
-0.412453
-0.447676
-0.420974
-0.400561
-0.367412
-0.328102
-0.280872
-0.213478
-0.149336
-0.0824833
-0.0263309
0.0214928
0.0586619
0.0833328
0.0999264
0.101895
0.105513
0.103186
-0.568835
-0.596985
-0.613059
-0.625052
-0.66138
-0.647408
-0.660363
-0.635378
-0.584422
-0.545206
-0.463298
-0.404137
-0.311211
-0.231959
-0.181857
-0.146838
-0.137357
-0.163338
-0.204719
-0.260313
-0.323087
-0.404069
-0.497061
-0.576822
-0.602565
-0.645722
-0.657304
-0.625014
-0.591629
-0.508395
-0.402931
-0.309994
-0.206253
-0.123005
-0.0469981
0.0140677
0.0566454
0.0881997
0.108219
0.112317
0.106552
-0.587245
-0.615693
-0.638951
-0.676964
-0.671249
-0.670216
-0.65758
-0.597205
-0.52002
-0.445092
-0.314532
-0.177989
-0.0353698
0.0910903
0.176722
0.225654
0.207959
0.150089
0.0384874
-0.103099
-0.263867
-0.446363
-0.629612
-0.817268
-0.96248
-1.01692
-1.07426
-1.07733
-1.02021
-0.886701
-0.744345
-0.587193
-0.428976
-0.288136
-0.158826
-0.0602233
0.0106137
0.0577821
0.0904676
0.105291
0.109505
-0.609176
-0.637835
-0.659241
-0.679974
-0.67148
-0.662264
-0.625415
-0.553903
-0.41169
-0.237052
-0.0187735
0.224543
0.466149
0.67421
0.827135
0.885229
0.866809
0.712016
0.456566
0.180799
-0.146725
-0.48258
-0.825306
-1.17382
-1.47808
-1.66368
-1.77916
-1.79871
-1.77068
-1.6265
-1.32791
-1.04996
-0.793132
-0.547216
-0.345322
-0.186577
-0.0657226
0.0140438
0.0645161
0.0898902
0.104333
-0.651717
-0.680681
-0.707046
-0.699628
-0.679563
-0.682446
-0.582517
-0.404893
-0.199718
0.0950227
0.452093
0.881048
1.31317
1.69235
1.94075
2.03061
1.9617
1.66532
1.23464
0.676442
0.0812223
-0.530042
-1.16892
-1.7063
-2.27326
-2.61384
-3.00335
-2.97307
-2.96483
-2.61759
-2.25522
-1.84253
-1.37673
-0.957049
-0.60477
-0.35552
-0.173861
-0.0562855
0.0230983
0.0702403
0.0870035
-0.664372
-0.704825
-0.722776
-0.740464
-0.704146
-0.599003
-0.473271
-0.233842
0.12378
0.629665
1.26701
1.9119
2.70546
3.40374
3.88027
3.94636
3.84397
3.19118
2.45053
1.52122
0.47929
-0.578263
-1.7137
-2.59971
-3.6171
-4.25447
-4.92508
-5.07505
-4.8915
-4.2818
-3.66914
-2.96702
-2.15169
-1.50488
-0.986219
-0.601032
-0.328114
-0.151535
-0.0335388
0.0351616
0.0709669
-0.686681
-0.736374
-0.733796
-0.741337
-0.673709
-0.540424
-0.328826
0.0281964
0.579537
1.34063
2.30165
3.54115
4.82327
5.65135
6.66848
7.05349
6.72202
5.56949
4.39809
2.75121
1.10007
-0.661943
-2.40956
-4.10304
-5.70456
-6.72611
-8.09124
-8.34902
-8.08534
-6.97533
-5.73506
-4.64164
-3.36355
-2.28594
-1.47924
-0.943112
-0.518734
-0.26836
-0.10708
-0.00854711
0.0452276
-0.689253
-0.726219
-0.746894
-0.710705
-0.6604
-0.474332
-0.150864
0.35283
1.14128
2.25131
3.90237
5.81135
7.98196
9.58039
11.0752
11.5561
10.5343
9.19912
7.50889
4.73244
1.9233
-0.737412
-3.36853
-6.19974
-8.22146
-10.8319
-12.3208
-12.6915
-12.1808
-11.0407
-9.14286
-7.06312
-5.01973
-3.49447
-2.18119
-1.32386
-0.764084
-0.407241
-0.19936
-0.0633855
0.0118717
-0.755535
-0.763667
-0.75058
-0.729563
-0.613945
-0.368236
0.0412448
0.725218
1.85282
3.50764
5.77539
8.53814
12.2262
15.1374
16.6542
17.6007
17.3201
14.5986
10.9123
7.17162
3.01663
-0.760872
-4.67898
-8.63465
-12.6228
-16.1882
-18.3133
-19.3154
-17.8281
-16.5998
-13.5866
-10.3128
-6.94675
-4.59514
-2.96683
-1.86602
-1.06617
-0.584916
-0.285407
-0.123445
-0.0246545
-0.808381
-0.756183
-0.780318
-0.701377
-0.581117
-0.278457
0.237335
1.04453
2.48062
4.59172
7.65426
12.4154
16.5673
21.5756
24.9521
24.7399
23.586
20.6974
15.9647
10.0296
4.48007
-0.855616
-6.09249
-11.0761
-16.8886
-21.6966
-25.1568
-25.6232
-25.0593
-21.6683
-18.0937
-13.3848
-9.02289
-5.84918
-3.79266
-2.16738
-1.29984
-0.734512
-0.378455
-0.183969