# vtk DataFile Version 3.0
Gravity effects
ASCII
DATASET UNSTRUCTURED_GRID

POINTS	1681	double
0	0	-0.1
50	0	-0.1
100	0	-0.1
150	0	-0.1
200	0	-0.1
250	0	-0.1
300	0	-0.1
350	0	-0.1
400	0	-0.1
450	0	-0.1
500	0	-0.1
550	0	-0.1
600	0	-0.1
650	0	-0.1
700	0	-0.1
750	0	-0.1
800	0	-0.1
850	0	-0.1
900	0	-0.1
950	0	-0.1
1000	0	-0.1
1050	0	-0.1
1100	0	-0.1
1150	0	-0.1
1200	0	-0.1
1250	0	-0.1
1300	0	-0.1
1350	0	-0.1
1400	0	-0.1
1450	0	-0.1
1500	0	-0.1
1550	0	-0.1
1600	0	-0.1
1650	0	-0.1
1700	0	-0.1
1750	0	-0.1
1800	0	-0.1
1850	0	-0.1
1900	0	-0.1
1950	0	-0.1
2000	0	-0.1
0	50	-0.1
50	50	-0.1
100	50	-0.1
150	50	-0.1
200	50	-0.1
250	50	-0.1
300	50	-0.1
350	50	-0.1
400	50	-0.1
450	50	-0.1
500	50	-0.1
550	50	-0.1
600	50	-0.1
650	50	-0.1
700	50	-0.1
750	50	-0.1
800	50	-0.1
850	50	-0.1
900	50	-0.1
950	50	-0.1
1000	50	-0.1
1050	50	-0.1
1100	50	-0.1
1150	50	-0.1
1200	50	-0.1
1250	50	-0.1
1300	50	-0.1
1350	50	-0.1
1400	50	-0.1
1450	50	-0.1
1500	50	-0.1
1550	50	-0.1
1600	50	-0.1
1650	50	-0.1
1700	50	-0.1
1750	50	-0.1
1800	50	-0.1
1850	50	-0.1
1900	50	-0.1
1950	50	-0.1
2000	50	-0.1
0	100	-0.1
50	100	-0.1
100	100	-0.1
150	100	-0.1
200	100	-0.1
250	100	-0.1
300	100	-0.1
350	100	-0.1
400	100	-0.1
450	100	-0.1
500	100	-0.1
550	100	-0.1
600	100	-0.1
650	100	-0.1
700	100	-0.1
750	100	-0.1
800	100	-0.1
850	100	-0.1
900	100	-0.1
950	100	-0.1
1000	100	-0.1
1050	100	-0.1
1100	100	-0.1
1150	100	-0.1
1200	100	-0.1
1250	100	-0.1
1300	100	-0.1
1350	100	-0.1
1400	100	-0.1
1450	100	-0.1
1500	100	-0.1
1550	100	-0.1
1600	100	-0.1
1650	100	-0.1
1700	100	-0.1
1750	100	-0.1
1800	100	-0.1
1850	100	-0.1
1900	100	-0.1
1950	100	-0.1
2000	100	-0.1
0	150	-0.1
50	150	-0.1
100	150	-0.1
150	150	-0.1
200	150	-0.1
250	150	-0.1
300	150	-0.1
350	150	-0.1
400	150	-0.1
450	150	-0.1
500	150	-0.1
550	150	-0.1
600	150	-0.1
650	150	-0.1
700	150	-0.1
750	150	-0.1
800	150	-0.1
850	150	-0.1
900	150	-0.1
950	150	-0.1
1000	150	-0.1
1050	150	-0.1
1100	150	-0.1
1150	150	-0.1
1200	150	-0.1
1250	150	-0.1
1300	150	-0.1
1350	150	-0.1
1400	150	-0.1
1450	150	-0.1
1500	150	-0.1
1550	150	-0.1
1600	150	-0.1
1650	150	-0.1
1700	150	-0.1
1750	150	-0.1
1800	150	-0.1
1850	150	-0.1
1900	150	-0.1
1950	150	-0.1
2000	150	-0.1
0	200	-0.1
50	200	-0.1
100	200	-0.1
150	200	-0.1
200	200	-0.1
250	200	-0.1
300	200	-0.1
350	200	-0.1
400	200	-0.1
450	200	-0.1
500	200	-0.1
550	200	-0.1
600	200	-0.1
650	200	-0.1
700	200	-0.1
750	200	-0.1
800	200	-0.1
850	200	-0.1
900	200	-0.1
950	200	-0.1
1000	200	-0.1
1050	200	-0.1
1100	200	-0.1
1150	200	-0.1
1200	200	-0.1
1250	200	-0.1
1300	200	-0.1
1350	200	-0.1
1400	200	-0.1
1450	200	-0.1
1500	200	-0.1
1550	200	-0.1
1600	200	-0.1
1650	200	-0.1
1700	200	-0.1
1750	200	-0.1
1800	200	-0.1
1850	200	-0.1
1900	200	-0.1
1950	200	-0.1
2000	200	-0.1
0	250	-0.1
50	250	-0.1
100	250	-0.1
150	250	-0.1
200	250	-0.1
250	250	-0.1
300	250	-0.1
350	250	-0.1
400	250	-0.1
450	250	-0.1
500	250	-0.1
550	250	-0.1
600	250	-0.1
650	250	-0.1
700	250	-0.1
750	250	-0.1
800	250	-0.1
850	250	-0.1
900	250	-0.1
950	250	-0.1
1000	250	-0.1
1050	250	-0.1
1100	250	-0.1
1150	250	-0.1
1200	250	-0.1
1250	250	-0.1
1300	250	-0.1
1350	250	-0.1
1400	250	-0.1
1450	250	-0.1
1500	250	-0.1
1550	250	-0.1
1600	250	-0.1
1650	250	-0.1
1700	250	-0.1
1750	250	-0.1
1800	250	-0.1
1850	250	-0.1
1900	250	-0.1
1950	250	-0.1
2000	250	-0.1
0	300	-0.1
50	300	-0.1
100	300	-0.1
150	300	-0.1
200	300	-0.1
250	300	-0.1
300	300	-0.1
350	300	-0.1
400	300	-0.1
450	300	-0.1
500	300	-0.1
550	300	-0.1
600	300	-0.1
650	300	-0.1
700	300	-0.1
750	300	-0.1
800	300	-0.1
850	300	-0.1
900	300	-0.1
950	300	-0.1
1000	300	-0.1
1050	300	-0.1
1100	300	-0.1
1150	300	-0.1
1200	300	-0.1
1250	300	-0.1
1300	300	-0.1
1350	300	-0.1
1400	300	-0.1
1450	300	-0.1
1500	300	-0.1
1550	300	-0.1
1600	300	-0.1
1650	300	-0.1
1700	300	-0.1
1750	300	-0.1
1800	300	-0.1
1850	300	-0.1
1900	300	-0.1
1950	300	-0.1
2000	300	-0.1
0	350	-0.1
50	350	-0.1
100	350	-0.1
150	350	-0.1
200	350	-0.1
250	350	-0.1
300	350	-0.1
350	350	-0.1
400	350	-0.1
450	350	-0.1
500	350	-0.1
550	350	-0.1
600	350	-0.1
650	350	-0.1
700	350	-0.1
750	350	-0.1
800	350	-0.1
850	350	-0.1
900	350	-0.1
950	350	-0.1
1000	350	-0.1
1050	350	-0.1
1100	350	-0.1
1150	350	-0.1
1200	350	-0.1
1250	350	-0.1
1300	350	-0.1
1350	350	-0.1
1400	350	-0.1
1450	350	-0.1
1500	350	-0.1
1550	350	-0.1
1600	350	-0.1
1650	350	-0.1
1700	350	-0.1
1750	350	-0.1
1800	350	-0.1
1850	350	-0.1
1900	350	-0.1
1950	350	-0.1
2000	350	-0.1
0	400	-0.1
50	400	-0.1
100	400	-0.1
150	400	-0.1
200	400	-0.1
250	400	-0.1
300	400	-0.1
350	400	-0.1
400	400	-0.1
450	400	-0.1
500	400	-0.1
550	400	-0.1
600	400	-0.1
650	400	-0.1
700	400	-0.1
750	400	-0.1
800	400	-0.1
850	400	-0.1
900	400	-0.1
950	400	-0.1
1000	400	-0.1
1050	400	-0.1
1100	400	-0.1
1150	400	-0.1
1200	400	-0.1
1250	400	-0.1
1300	400	-0.1
1350	400	-0.1
1400	400	-0.1
1450	400	-0.1
1500	400	-0.1
1550	400	-0.1
1600	400	-0.1
1650	400	-0.1
1700	400	-0.1
1750	400	-0.1
1800	400	-0.1
1850	400	-0.1
1900	400	-0.1
1950	400	-0.1
2000	400	-0.1
0	450	-0.1
50	450	-0.1
100	450	-0.1
150	450	-0.1
200	450	-0.1
250	450	-0.1
300	450	-0.1
350	450	-0.1
400	450	-0.1
450	450	-0.1
500	450	-0.1
550	450	-0.1
600	450	-0.1
650	450	-0.1
700	450	-0.1
750	450	-0.1
800	450	-0.1
850	450	-0.1
900	450	-0.1
950	450	-0.1
1000	450	-0.1
1050	450	-0.1
1100	450	-0.1
1150	450	-0.1
1200	450	-0.1
1250	450	-0.1
1300	450	-0.1
1350	450	-0.1
1400	450	-0.1
1450	450	-0.1
1500	450	-0.1
1550	450	-0.1
1600	450	-0.1
1650	450	-0.1
1700	450	-0.1
1750	450	-0.1
1800	450	-0.1
1850	450	-0.1
1900	450	-0.1
1950	450	-0.1
2000	450	-0.1
0	500	-0.1
50	500	-0.1
100	500	-0.1
150	500	-0.1
200	500	-0.1
250	500	-0.1
300	500	-0.1
350	500	-0.1
400	500	-0.1
450	500	-0.1
500	500	-0.1
550	500	-0.1
600	500	-0.1
650	500	-0.1
700	500	-0.1
750	500	-0.1
800	500	-0.1
850	500	-0.1
900	500	-0.1
950	500	-0.1
1000	500	-0.1
1050	500	-0.1
1100	500	-0.1
1150	500	-0.1
1200	500	-0.1
1250	500	-0.1
1300	500	-0.1
1350	500	-0.1
1400	500	-0.1
1450	500	-0.1
1500	500	-0.1
1550	500	-0.1
1600	500	-0.1
1650	500	-0.1
1700	500	-0.1
1750	500	-0.1
1800	500	-0.1
1850	500	-0.1
1900	500	-0.1
1950	500	-0.1
2000	500	-0.1
0	550	-0.1
50	550	-0.1
100	550	-0.1
150	550	-0.1
200	550	-0.1
250	550	-0.1
300	550	-0.1
350	550	-0.1
400	550	-0.1
450	550	-0.1
500	550	-0.1
550	550	-0.1
600	550	-0.1
650	550	-0.1
700	550	-0.1
750	550	-0.1
800	550	-0.1
850	550	-0.1
900	550	-0.1
950	550	-0.1
1000	550	-0.1
1050	550	-0.1
1100	550	-0.1
1150	550	-0.1
1200	550	-0.1
1250	550	-0.1
1300	550	-0.1
1350	550	-0.1
1400	550	-0.1
1450	550	-0.1
1500	550	-0.1
1550	550	-0.1
1600	550	-0.1
1650	550	-0.1
1700	550	-0.1
1750	550	-0.1
1800	550	-0.1
1850	550	-0.1
1900	550	-0.1
1950	550	-0.1
2000	550	-0.1
0	600	-0.1
50	600	-0.1
100	600	-0.1
150	600	-0.1
200	600	-0.1
250	600	-0.1
300	600	-0.1
350	600	-0.1
400	600	-0.1
450	600	-0.1
500	600	-0.1
550	600	-0.1
600	600	-0.1
650	600	-0.1
700	600	-0.1
750	600	-0.1
800	600	-0.1
850	600	-0.1
900	600	-0.1
950	600	-0.1
1000	600	-0.1
1050	600	-0.1
1100	600	-0.1
1150	600	-0.1
1200	600	-0.1
1250	600	-0.1
1300	600	-0.1
1350	600	-0.1
1400	600	-0.1
1450	600	-0.1
1500	600	-0.1
1550	600	-0.1
1600	600	-0.1
1650	600	-0.1
1700	600	-0.1
1750	600	-0.1
1800	600	-0.1
1850	600	-0.1
1900	600	-0.1
1950	600	-0.1
2000	600	-0.1
0	650	-0.1
50	650	-0.1
100	650	-0.1
150	650	-0.1
200	650	-0.1
250	650	-0.1
300	650	-0.1
350	650	-0.1
400	650	-0.1
450	650	-0.1
500	650	-0.1
550	650	-0.1
600	650	-0.1
650	650	-0.1
700	650	-0.1
750	650	-0.1
800	650	-0.1
850	650	-0.1
900	650	-0.1
950	650	-0.1
1000	650	-0.1
1050	650	-0.1
1100	650	-0.1
1150	650	-0.1
1200	650	-0.1
1250	650	-0.1
1300	650	-0.1
1350	650	-0.1
1400	650	-0.1
1450	650	-0.1
1500	650	-0.1
1550	650	-0.1
1600	650	-0.1
1650	650	-0.1
1700	650	-0.1
1750	650	-0.1
1800	650	-0.1
1850	650	-0.1
1900	650	-0.1
1950	650	-0.1
2000	650	-0.1
0	700	-0.1
50	700	-0.1
100	700	-0.1
150	700	-0.1
200	700	-0.1
250	700	-0.1
300	700	-0.1
350	700	-0.1
400	700	-0.1
450	700	-0.1
500	700	-0.1
550	700	-0.1
600	700	-0.1
650	700	-0.1
700	700	-0.1
750	700	-0.1
800	700	-0.1
850	700	-0.1
900	700	-0.1
950	700	-0.1
1000	700	-0.1
1050	700	-0.1
1100	700	-0.1
1150	700	-0.1
1200	700	-0.1
1250	700	-0.1
1300	700	-0.1
1350	700	-0.1
1400	700	-0.1
1450	700	-0.1
1500	700	-0.1
1550	700	-0.1
1600	700	-0.1
1650	700	-0.1
1700	700	-0.1
1750	700	-0.1
1800	700	-0.1
1850	700	-0.1
1900	700	-0.1
1950	700	-0.1
2000	700	-0.1
0	750	-0.1
50	750	-0.1
100	750	-0.1
150	750	-0.1
200	750	-0.1
250	750	-0.1
300	750	-0.1
350	750	-0.1
400	750	-0.1
450	750	-0.1
500	750	-0.1
550	750	-0.1
600	750	-0.1
650	750	-0.1
700	750	-0.1
750	750	-0.1
800	750	-0.1
850	750	-0.1
900	750	-0.1
950	750	-0.1
1000	750	-0.1
1050	750	-0.1
1100	750	-0.1
1150	750	-0.1
1200	750	-0.1
1250	750	-0.1
1300	750	-0.1
1350	750	-0.1
1400	750	-0.1
1450	750	-0.1
1500	750	-0.1
1550	750	-0.1
1600	750	-0.1
1650	750	-0.1
1700	750	-0.1
1750	750	-0.1
1800	750	-0.1
1850	750	-0.1
1900	750	-0.1
1950	750	-0.1
2000	750	-0.1
0	800	-0.1
50	800	-0.1
100	800	-0.1
150	800	-0.1
200	800	-0.1
250	800	-0.1
300	800	-0.1
350	800	-0.1
400	800	-0.1
450	800	-0.1
500	800	-0.1
550	800	-0.1
600	800	-0.1
650	800	-0.1
700	800	-0.1
750	800	-0.1
800	800	-0.1
850	800	-0.1
900	800	-0.1
950	800	-0.1
1000	800	-0.1
1050	800	-0.1
1100	800	-0.1
1150	800	-0.1
1200	800	-0.1
1250	800	-0.1
1300	800	-0.1
1350	800	-0.1
1400	800	-0.1
1450	800	-0.1
1500	800	-0.1
1550	800	-0.1
1600	800	-0.1
1650	800	-0.1
1700	800	-0.1
1750	800	-0.1
1800	800	-0.1
1850	800	-0.1
1900	800	-0.1
1950	800	-0.1
2000	800	-0.1
0	850	-0.1
50	850	-0.1
100	850	-0.1
150	850	-0.1
200	850	-0.1
250	850	-0.1
300	850	-0.1
350	850	-0.1
400	850	-0.1
450	850	-0.1
500	850	-0.1
550	850	-0.1
600	850	-0.1
650	850	-0.1
700	850	-0.1
750	850	-0.1
800	850	-0.1
850	850	-0.1
900	850	-0.1
950	850	-0.1
1000	850	-0.1
1050	850	-0.1
1100	850	-0.1
1150	850	-0.1
1200	850	-0.1
1250	850	-0.1
1300	850	-0.1
1350	850	-0.1
1400	850	-0.1
1450	850	-0.1
1500	850	-0.1
1550	850	-0.1
1600	850	-0.1
1650	850	-0.1
1700	850	-0.1
1750	850	-0.1
1800	850	-0.1
1850	850	-0.1
1900	850	-0.1
1950	850	-0.1
2000	850	-0.1
0	900	-0.1
50	900	-0.1
100	900	-0.1
150	900	-0.1
200	900	-0.1
250	900	-0.1
300	900	-0.1
350	900	-0.1
[...]
CELL_DATA	1681
SCALARS T_zz double 1
LOOKUP_TABLE table0
-0.453214
-0.478003
-0.501298
-0.520528
-0.539157
-0.554566
-0.563983
-0.570583
-0.573567
-0.57209
-0.565727
-0.554559
-0.536055
-0.513229
-0.489399
-0.462926
-0.437325
-0.411857
-0.385642
-0.361672
-0.338345
-0.315959
-0.294468
-0.271274
-0.243531
-0.212771
-0.180736
-0.145458
-0.109598
-0.0734129
-0.037117
-0.00344421
0.0255131
0.0498771
0.0698853
0.084028
0.0928384
0.0970252
0.0972215
0.0939933
0.0881209
-0.487083
-0.512616
-0.537492
-0.557136
-0.578253
-0.59476
-0.600417
-0.601662
-0.597604
-0.587375
-0.570882
-0.549086
-0.517848
-0.484117
-0.454973
-0.426753
-0.405475
-0.388338
-0.372083
-0.361301
-0.352105
-0.345277
-0.340947
-0.333455
-0.316328
-0.292202
-0.264408
-0.228646
-0.189378
-0.145992
-0.0981849
-0.0514301
-0.0102487
0.0254693
0.0561995
0.0787339
0.09372
0.102101
0.104811
0.102815
0.0974607
-0.521705
-0.549271
-0.575674
-0.596048
-0.616549
-0.630363
-0.630568
-0.623144
-0.606969
-0.581211
-0.546313
-0.504569
-0.454091
-0.404686
-0.36591
-0.335333
-0.319335
-0.315073
-0.318439
-0.332375
-0.351448
-0.375365
-0.40267
-0.424886
-0.432535
-0.42644
-0.409229
-0.376321
-0.332212
-0.276965
-0.211843
-0.144614
-0.0822223
-0.0265498
0.0215451
0.0581537
0.0837945
0.0997421
0.10746
0.108408
0.104395
-0.55458
-0.583564
-0.611285
-0.632644
-0.652753
-0.663023
-0.654853
-0.633297
-0.59684
-0.544545
-0.47756
-0.40034
-0.314874
-0.236516
-0.179984
-0.145174
-0.139127
-0.159193
-0.199405
-0.258785
-0.328606
-0.407163
-0.491061
-0.56717
-0.620682
-0.649226
-0.654017
-0.629534
-0.579866
-0.505931
-0.411831
-0.309914
-0.21185
-0.122945
-0.0460316
0.0139946
0.0574759
0.0862181
0.10257
0.108881
0.107779
-0.584686
-0.613348
-0.641736
-0.663447
-0.67513
-0.672103
-0.649694
-0.604373
-0.534132
-0.437117
-0.31522
-0.177145
-0.0353197
0.0906134
0.178935
0.221392
0.211093
0.146994
0.0384855
-0.104149
-0.266679
-0.443086
-0.625903
-0.796924
-0.932266
-1.02486
-1.07286
-1.06605
-1.00783
-0.900722
-0.754327
-0.590559
-0.430594
-0.2852
-0.159795
-0.0612408
0.010659
0.0593749
0.0893641
0.104286
0.107495
-0.613784
-0.641411
-0.669206
-0.689068
-0.688515
-0.665762
-0.618747
-0.533788
-0.406773
-0.233959
-0.0188069
0.222405
0.462538
0.675722
0.829532
0.894408
0.853156
0.705486
0.473158
0.181659
-0.143998
-0.48903
-0.83962
-1.17221
-1.45244
-1.66315
-1.79193
-1.81793
-1.74225
-1.57276
-1.3316
-1.05803
-0.789654
-0.547395
-0.341574
-0.18127
-0.06514
0.0138693
0.0640922
0.0918101
0.10198
-0.643698
-0.670688
-0.696168
-0.710646
-0.69856
-0.653205
-0.566659
-0.419245
-0.200912
0.0963014
0.467524
0.886096
1.31128
1.69234
1.95589
2.05258
1.95998
1.67042
1.2248
0.679589
0.0810359
-0.541471
-1.1658
-1.76282
-2.28859
-2.70576
-2.97706
-3.0606
-2.94999
-2.66737
-2.26131
-1.80077
-1.35051
-0.949014
-0.615362
-0.360288
-0.178245
-0.0553637
0.0232134
0.0687596
0.0897225
-0.6735
-0.699308
-0.720635
-0.725842
-0.695369
-0.616216
-0.472246
-0.233876
0.120394
0.608438
1.22922
1.95107
2.7111
3.38811
3.82675
3.95922
3.77028
3.2492
2.45803
1.50351
0.475757
-0.576426
-1.62295
-2.63132
-3.54977
-4.30585
-4.8181
-5.00137
-4.82584
-4.34849
-3.6689
-2.9059
-2.17116
-1.52598
-1.00037
-0.607073
-0.332182
-0.1495
-0.0332519
0.0356801
0.0708558
-0.699873
-0.721435
-0.736902
-0.729387
-0.674818
-0.551533
-0.331659
0.0284281
0.578604
1.34671
2.36333
3.59529
4.80562
5.85308
6.74883
7.1051
6.69271
5.76686
4.41961
2.81659
1.08737
-0.658736
-2.41631
-4.12449
-5.6964
-7.0329
-8.02509
-8.47863
-8.07228
-7.17273
-5.97358
-4.64846
-3.40819
-2.31893
-1.51779
-0.932104
-0.531659
-0.270497
-0.106547
-0.00860169
0.0446719
-0.723767
-0.740285
-0.748457
-0.725625
-0.642195
-0.465961
-0.154366
0.353829
1.14424
2.27543
3.83446
5.8025
7.76277
9.42173
10.8377
11.364
10.629
9.16097
7.06957
4.59748
1.93594
-0.733189
-3.41884
-6.02789
-8.43265
-10.4861
-12.032
-12.7853
-12.1499
-10.7991
-9.00541
-6.98975
-5.06644
-3.36115
-2.17301
-1.33304
-0.772958
-0.415014
-0.193875
-0.0619944
0.0120656
-0.746267
-0.759363
-0.759384
-0.720104
-0.605273
-0.37124
0.0413126
0.714224
1.80406
3.40867
5.668
8.59607
12.2711
15.4383
17.6101
18.4402
17.1775
14.9326
11.3113
7.15457
3.19129
-0.775923
-4.72418
-8.5392
-12.6307
-16.1963
-18.3367
-19.4173
-18.4155
-16.4816
-13.4393
-9.99515
-7.16565
-4.61462
-2.92756
-1.78457
-1.04126
-0.574557
-0.290123
-0.121412
-0.0256595
-0.764459
-0.773715
-0.765744
-0.71103
-0.566862
-0.277688
0.23511
1.08034
2.50204
4.67695
7.80729
11.7881
17.07
21.587
24.4881
25.6598
23.8386
20.7701
15.6156
9.77173
4.46898
-0.852393
-6.11174
-11.1539
-16.9105
-21.9409
-24.625
-26.009
-24.6625
-22.1933
-17.9473
-13.0897
-9.32075
-5.88033
-3.68023
-2.2366
-1.31211
-0.737057
-0.389862
-0.184935
-0.0678059
-0.785081
-0.796874
-0.782349
-0.715404
-0.544128
-0.206123
0.393161
1.39916
3.03332
5.72286
9.79498
14.7075
20.8513
26.4735
29.8511
30.8334
29.1708
25.9522
19.4678
12.1875
5.66505
-0.920402
-7.55473
-13.8685
-21.0306
-27.2784
-30.6196
-32.4824
-30.6605
-27.5687
-22.1908
-16.0213
-11.3435
-7.03513
-4.35888
-2.61746
-1.54646
-0.88163
-0.480485
-0.244386
-0.110332
-0.803915
-0.819721
-0.801366
-0.727074
-0.537584
-0.166854
0.491281
1.61378
3.38971
6.47331
11.292
16.8588
23.5721
30.0617
33.9143
34.8494
33.2815
29.9168
22.36
13.9514
6.53461
-0.997195
-8.71546
-16.0366
-24.3644
-31.6369
-35.518
-37.8078
-35.5129
-31.8522
-25.4533
-18.1474
-12.7975
-7.84845
-4.84284
-2.88607
-1.71803
-0.993474
-0.555493
-0.297646
-0.151846
-0.816807
-0.833106
-0.814764
-0.739386
-0.546564
-0.167524
0.510612
1.6767
3.55646
6.8272
11.833
17.5469
24.5329
31.0952
34.9997
36.1032
34.2862
30.61
22.9499
14.4342
6.78294
-1.01687
-8.86264
-16.3073
-24.8608
-32.2926
-36.4111
-38.8914
-36.5628
-32.8279
-26.2425
-18.7286
-13.1626
-8.01565
-4.9853
-3.02711
-1.81402
-1.06273
-0.610394
-0.343192
-0.190992
-0.830624
-0.850339
-0.836486
-0.767325
-0.583958
-0.220162
0.433547
1.55908
3.37556
6.48888
11.1255
16.51
23.6093
30.1933
33.7896
34.7239
33.1159
29.7474
22.2869
14.0287
6.58964
-1.00665
-8.54646
-15.7477
-24.2497
-31.6455
-35.8783
-38.4876
-36.1228
-32.3709
-25.7288
-18.2301
-12.7616
-7.72021
-4.86191
-3.0134
-1.82124
-1.08253
-0.638398
-0.374927
-0.224231
-0.842479
-0.865672
-0.860377
-0.804343
-0.641722
-0.314688
0.273247
1.28421
2.93803
5.63513
9.58934
14.3641
20.627
26.189
29.4336
30.418
28.7151
25.5232
19.1435
12.0483
5.59667
-0.996364
-7.63596
-14.0496
-21.1905
-27.3288
-31.0636
-33.2516
-31.3108
-28.0699
-22.4612
-16.1578
-11.4135
-7.08885
-4.52854
-2.83443
-1.74253
-1.06407
-0.64868
-0.401113
-0.255693
-0.853682
-0.8819
-0.887703
-0.849297
-0.715871
-0.441755
0.0505425
0.896291
2.30799
4.46518
7.55043
11.4468
16.498
20.773
23.7376
24.9796
23.2168
20.2651
15.2105
9.5409
4.3633
-0.914679
-6.32334
-11.6365
-17.1621
-21.8601
-24.9885
-26.7088
-25.2012
-22.5466
-18.1282
-13.2353
-9.4565
-6.06884
-3.96404
-2.52531
-1.59338
-1.00858
-0.640638
-0.419357
-0.284731
-0.865667
-0.90192
-0.919603
-0.900254
-0.800139
-0.586725
-0.203305
0.457312
1.52955
3.11317
5.35218
8.22239
11.8409
14.9455
17.0686
17.8976
16.7448
14.6387
11.1124
7.09383
3.23457
-0.6629
-4.65237
-8.65914
-12.622
-15.9819
-18.3553
-19.5239
-18.5178
-16.5772
-13.4806
-10.1442
-7.3036
-4.79683
-3.24575
-2.13383
-1.39485
-0.921372
-0.615728
-0.42837
-0.311248
-0.875432
-0.919657
-0.948925
-0.948026
-0.880199
-0.725801
-0.448464
0.0334097
0.791383
1.89057
3.45477
5.40911
7.52604
9.3448
10.6261
11.0986
10.5459
9.2695
7.3111
4.97229
2.39787
-0.172207
-2.76155
-5.43631
-7.76904
-9.72536
-11.3242
-11.984
-11.5857
-10.4942
-8.83583
-7.11135
-5.17852
-3.49648
-2.48095
-1.70419
-1.17255
-0.823111
-0.588306
-0.439117
-0.340632
-0.879298
-0.927985
-0.968047
-0.98411
-0.953725
-0.859701
-0.67476
-0.34868
0.165297
0.902121
1.91535
3.15116
4.45229
5.60085
6.49502
6.9481
6.79437
6.16306
5.07149
3.68524
2.1727
0.648283
-0.941694
-2.62424
-4.14615
-5.47514
-6.57648
-7.05514
-6.89108
-6.269
-5.30824
-4.33307
-3.26239
-2.34319
-1.75721
-1.28367
-0.941143
-0.705389
-0.543636
-0.433868
-0.363083
-0.879135
-0.931354
-0.98101
-1.01209
-1.01511
-0.972487
-0.861618
-0.658566
-0.33422
0.133173
0.748435
1.49579
2.28759
3.02494
3.62666
4.04201
4.22302
4.15804
3.84781
3.30924
2.71818
2.06187
1.26684
0.381298
-0.482548
-1.30139
-2.00114
-2.38616
-2.53661
-2.44425
-2.19598
-1.92281
-1.59838
-1.31592
-1.08676
-0.884478
-0.71725
-0.589541
-0.498894
-0.428016
-0.384837
-0.876864
-0.934291
-0.992014
-1.03598
-1.05999
-1.0517
-0.996883
-0.883169
-0.693116
-0.41119
-0.0296625
0.44657
0.974087
1.52829
2.07458
2.62254
3.163
3.64284
4.01839
4.21913
4.33484
4.3196
4.1107
3.76834
3.38375
2.91641
2.36632
1.88555
1.34954
0.860098
0.486239
0.140526
-0.129133
-0.3251
-0.442336
-0.49899
-0.508108
-0.492822
-0.46971
-0.436499
-0.412085
-0.869203
-0.930305
-0.994505
-1.04928
-1.09052
-1.10881
-1.0943
-1.04068
-0.936568
-0.769124
-0.525662
-0.195236
0.219582
0.736248
1.34008
2.10941
3.08849
4.16895
5.25026
6.18994
7.0072
7.60306
7.90099
7.9766
7.9116
7.64461
7.13726
6.50045
5.55267
4.45827
3.41486
2.37939
1.43296
0.690691
0.196991
-0.123358
-0.304697
-0.396612
-0.437399
-0.440324
-0.434818
-0.853598
-0.913644
-0.982749
-1.04619
-1.09884
-1.13461
-1.14748
-1.1312
-1.08424
-0.986889
-0.814074
-0.548071
-0.163737
0.39521
1.18553
2.31184
3.85516
5.66561
7.9209
10.0373
11.7292
13.0729
13.8006
14.1842
14.284
14.0638
13.4329
12.4955
11.0232
9.20456
7.06607
4.89024
3.14913
1.76107
0.841519
0.244832
-0.11064
-0.308345
-0.409346
-0.446217
-0.456644
-0.83464
-0.892466
-0.964789
-1.03432
-1.09436
-1.14132
-1.17157
-1.17707
-1.16414
-1.10502
-0.962759
-0.715013
-0.311986
0.337887
1.36234
2.90214
5.08142
7.67101
11.0957
14.3431
16.8424
18.8582
19.9386
20.5558
20.7524
20.527
19.744
18.5039
16.5269
14.0211
10.8261
7.51816
4.93821
2.84548
1.47176
0.593463
0.0671828
-0.230619
-0.386549
-0.453634
-0.477868
-0.816805
-0.874757
-0.948436
-1.02098
-1.08613
-1.14067
-1.18111
-1.19922
-1.20081
-1.15666
-1.02569
-0.775425
-0.335585
0.417793
1.65573
3.58501
6.58952
10.0975
15.0299
19.7046
23.2674
26.2353
27.5508
28.3185
28.6796
28.5473
27.5569
26.0005
23.1478
19.6264
15.0846
10.3238
6.79077
3.83481
2.02767
0.889851
0.212658
-0.169506
-0.370934
-0.462047
-0.498611
-0.797435
-0.854619
-0.927799
-1.00019
-1.06608
-1.12323
-1.16898
-1.19509
-1.20637
-1.17156
-1.04596
-0.789816
-0.318564
0.514609
1.91239
4.13226
7.80802
12.0406
18.2665
24.1602
28.6054
32.3788
33.8203
34.6605
35.1377
35.0817
33.9068
32.1042
28.5008
24.1372
18.4579
12.4678
8.18845
4.53725
2.41185
1.08551
0.300172
-0.140542
-0.372161
-0.478452
-0.522287
-0.777929
-0.834778
-0.905978
-0.975756
-1.04772
-1.11265
-1.1608
-1.19293
-1.20337
-1.16814
-1.04926
-0.794407
-0.318372
0.537642
1.99043
4.30688
8.06903
12.4148
18.7779
24.7962
29.3653
33.2274
34.8944
35.9266
36.3654
36.2571
34.8962
32.8913
29.3545
25.0173
19.1766
12.9939
8.56046
4.77938
2.53829
1.14023
0.313025
-0.149666
-0.391646
-0.50262
-0.548363
-0.757034
-0.813015
-0.881416
-0.947428
-1.02407
-1.09532
-1.14467
-1.18212
-1.19186
-1.15775
-1.05028
-0.809043
-0.358343
0.455392
1.83841
4.03077
7.54722
11.656
17.8806
23.824
28.3809
32.2423
34.0783
35.2654
35.6367
35.4586
33.9169
31.7528
28.3801
24.2222
18.4312
12.3366
8.09633
4.51355
2.3805
1.04332
0.248969
-0.195995
-0.428081
-0.53343
-0.575791
-0.73343
-0.787023
-0.852397
-0.914645
-0.987493
-1.05656
-1.107
-1.14959
-1.16833
-1.14678
-1.05659
-0.842788
-0.443054
0.272382
1.47367
3.34111
6.27756
9.78962
14.6715
19.4014
23.1801
26.3258
27.9095
28.86
29.2007
28.9968
27.9218
26.2817
23.3398
19.6895
15.0894
10.2827
6.72793
3.80677
1.98059
0.818225
0.120686
-0.272647
-0.477743
-0.568722
-0.603041
-0.708266
-0.759218
-0.821594
-0.880467
-0.950153
-1.01757
-1.06923
-1.11678
-1.14476
-1.13779
-1.07072
-0.896839
-0.571515
0.00520761
0.960368
2.40736
4.62981
7.36258
10.6659
13.9348
16.7151
18.9719
20.191
20.8504
21.1605
20.9651
20.4137
19.3858
17.0136
14.0684
10.9115
7.64754
4.9772
2.86053
1.4384
0.513086
-0.0497202
-0.369315
-0.535041
-0.605016
-0.62799
-0.681326
-0.729107
-0.788528
-0.844338
-0.91278
-0.98029
-1.03305
-1.08509
-1.11959
-1.12587
-1.08584
-0.959633
-0.711004
-0.276385
0.425686
1.47182
3.00631
4.92105
7.2395
9.56057
11.5674
13.1964
14.2146
14.8169
14.9898
14.7553
14.2882
13.4552
11.8221
9.79596
7.56283
5.27459
3.38615
1.89887
0.869252
0.186858
-0.235112
-0.475382
-0.595162
-0.640235
-0.649382
-0.652955
-0.697324
-0.753797
-0.806811
-0.874349
-0.942028
-0.995368
-1.05076
-1.09043
-1.10907
-1.09617
-1.01789
-0.842811
-0.53706
-0.0558128
0.654505
1.60306
2.78779
4.15002
5.50737
6.70437
7.66602
8.44946
8.97095
8.9981
8.74034
8.40081
7.80701
6.93223
5.83069
4.52115
3.17833
1.99171
1.0425
0.347917
-0.119236
-0.411733
-0.575886
-0.649838
-0.669606
-0.664832
-0.62333
-0.664238
-0.717677
-0.768125
-0.833583
-0.899869
-0.952833
-1.00951
-1.05381
-1.08378
-1.09398
-1.05729
-0.951433
-0.755942
-0.44576
0.0086892
0.600438
1.328
2.15318
2.96899
3.69708
4.29076
4.76657
5.0848
5.12944
4.99305
4.8019
4.44874
3.89071
3.20633
2.43483
1.64839
0.934978
0.35068
-0.083768
-0.377855
-0.560356
-0.656954
-0.691044
-0.688515
-0.672143
-0.592078
-0.629007
-0.679171
-0.727107
-0.790587
-0.855116
-0.906281
-0.961352
-1.00595
-1.04189
-1.06867
-1.06434
-1.01213
-0.899138
-0.712915
-0.440152
-0.0970296
0.322098
0.802761
1.27631
1.70756
2.06682
2.32257
2.48361
2.5511
2.51247
2.42342
2.23903
1.8892
1.46534
1.02444
0.582801
0.179884
-0.153199
-0.401395
-0.567452
-0.666938
-0.712048
-0.71554
-0.695912
-0.670942
-0.567399
-0.607504
-0.654151
-0.699497
-0.758257
-0.817889
-0.86588
-0.91669
-0.968247
-1.01554
-1.05223
-1.0713
-1.04764
-0.984062
-0.886246
-0.737106
-0.549456
-0.31986
-0.0547988
0.207156
0.45521
0.666803
0.818008
0.91642
0.957443
0.938904
0.894109
0.795315
0.604005
0.371838
0.134088
-0.0977767
-0.316933
-0.497724
-0.621413
-0.699726
-0.741541
-0.750914
-0.733453
-0.702359
-0.666803
-0.543282
-0.586685
-0.6299
-0.672701
-0.72671
-0.781231
-0.825516
-0.871041
-0.927745
-0.983293
-1.0248
-1.05937
-1.05259
-1.02109
-0.984593
-0.916288
-0.822231
-0.70414
-0.568227
-0.432289
-0.291016
-0.167034
-0.0795209
-0.0168096
0.0148042
0.0138817
-0.018184
-0.0809573
-0.170005
-0.278311
-0.394985
-0.503708
-0.61769
-0.709487
-0.755092
-0.777275
-0.781896
-0.768378
-0.737781
-0.6998
-0.656239
-0.513767
-0.553616
-0.593911
-0.634497
-0.686648
-0.739017
-0.780161
-0.821304
-0.873255
-0.925881
-0.96902
-1.01214
-1.02275
-1.01897
-1.0213
-1.00266
-0.968388
-0.919111
-0.857466
-0.794243
-0.717254
-0.646875
-0.601318
-0.56382
-0.537161
-0.52711
-0.537108
-0.564349
-0.601957
-0.647038
-0.694998
-0.734566
-0.783454
-0.818366
-0.818223
-0.806795
-0.788933
-0.761607
-0.723159
-0.681256
-0.636412
-0.487028
-0.524239
-0.562293
-0.601144
-0.651903
-0.702783
-0.74191
-0.780446
-0.829637
-0.880192
-0.923014
-0.968842
-0.98675
-0.996531
-1.01954
-1.02826
-1.02708
-1.0157
-0.994833
-0.971648
-0.93047
-0.89011
-0.867939
-0.845337
-0.823632
-0.809246
-0.806787
-0.813374
-0.822365
-0.833051
-0.844033
-0.846974
-0.861891
-0.867138
-0.842696
-0.812849
-0.78226
-0.746982
-0.704062
-0.659975
-0.614455
-0.462168
-0.497035
-0.533313
-0.570739
-0.614543
-0.658544
-0.696519
-0.733826
-0.776266
-0.819921
-0.861073
-0.905306
-0.936377
-0.962664
-0.993475
-1.01451
-1.02807
-1.03431
-1.03394
-1.03083
-1.01709
-1.00147
-0.991868
-0.978721
-0.963335
-0.95021
-0.942592
-0.938957
-0.935279
-0.930515
-0.923328
-0.908947
-0.897309
-0.878373
-0.843273
-0.804963
-0.766099
-0.724812
-0.679849
-0.634847
-0.589972

POINT_DATA	1681
SCALARS T_zz double 1
LOOKUP_TABLE table0
-0.453214
-0.478003
-0.501298
-0.520528
-0.539157
-0.554566
-0.563983
-0.570583
-0.573567
-0.57209
-0.565727
-0.554559
-0.536055
-0.513229
-0.489399
-0.462926
-0.437325
-0.411857
-0.385642
-0.361672
-0.338345
-0.315959
-0.294468
-0.271274
-0.243531
-0.212771
-0.180736
-0.145458
-0.109598
-0.0734129
-0.037117
-0.00344421
0.0255131
0.0498771
0.0698853
0.084028
0.0928384
0.0970252
0.0972215
0.0939933
0.0881209
-0.487083
-0.512616
-0.537492
-0.557136
-0.578253
-0.59476
-0.600417
-0.601662
-0.597604
-0.587375
-0.570882
-0.549086
-0.517848
-0.484117
-0.454973
-0.426753
-0.405475
-0.388338
-0.372083
-0.361301
-0.352105
-0.345277
-0.340947
-0.333455
-0.316328
-0.292202
-0.264408
-0.228646
-0.189378
-0.145992
-0.0981849
-0.0514301
-0.0102487
0.0254693
0.0561995
0.0787339
0.09372
0.102101
0.104811
0.102815
0.0974607
-0.521705
-0.549271
-0.575674
-0.596048
-0.616549
-0.630363
-0.630568
-0.623144
-0.606969
-0.581211
-0.546313
-0.504569
-0.454091
-0.404686
-0.36591
-0.335333
-0.319335
-0.315073
-0.318439
-0.332375
-0.351448
-0.375365
-0.40267
-0.424886
-0.432535
-0.42644
-0.409229
-0.376321
-0.332212
-0.276965
-0.211843
-0.144614
-0.0822223
-0.0265498
0.0215451
0.0581537
0.0837945
0.0997421
0.10746
0.108408
0.104395
-0.55458
-0.583564
-0.611285
-0.632644
-0.652753
-0.663023
-0.654853
-0.633297
-0.59684
-0.544545
-0.47756
-0.40034
-0.314874
-0.236516
-0.179984
-0.145174
-0.139127
-0.159193
-0.199405
-0.258785
-0.328606
-0.407163
-0.491061
-0.56717
-0.620682
-0.649226
-0.654017
-0.629534
-0.579866
-0.505931
-0.411831
-0.309914
-0.21185
-0.122945
-0.0460316
0.0139946
0.0574759
0.0862181
0.10257
0.108881
0.107779
-0.584686
-0.613348
-0.641736
-0.663447
-0.67513
-0.672103
-0.649694
-0.604373
-0.534132
-0.437117
-0.31522
-0.177145
-0.0353197
0.0906134
0.178935
0.221392
0.211093
0.146994
0.0384855
-0.104149
-0.266679
-0.443086
-0.625903
-0.796924
-0.932266
-1.02486
-1.07286
-1.06605
-1.00783
-0.900722
-0.754327
-0.590559
-0.430594
-0.2852
-0.159795
-0.0612408
0.010659
0.0593749
0.0893641
0.104286
0.107495
-0.613784
-0.641411
-0.669206
-0.689068
-0.688515
-0.665762
-0.618747
-0.533788
-0.406773
-0.233959
-0.0188069
0.222405
0.462538
0.675722
0.829532
0.894408
0.853156
0.705486
0.473158
0.181659
-0.143998
-0.48903
-0.83962
-1.17221
-1.45244
-1.66315
-1.79193
-1.81793
-1.74225
-1.57276
-1.3316
-1.05803
-0.789654
-0.547395
-0.341574
-0.18127
-0.06514
0.0138693
0.0640922
0.0918101
0.10198
-0.643698
-0.670688
-0.696168
-0.710646
-0.69856
-0.653205
-0.566659
-0.419245
-0.200912
0.0963014
0.467524
0.886096
1.31128
1.69234
1.95589
2.05258
1.95998
1.67042
1.2248
0.679589
0.0810359
-0.541471
-1.1658
-1.76282
-2.28859
-2.70576
-2.97706
-3.0606
-2.94999
-2.66737
-2.26131
-1.80077
-1.35051
-0.949014
-0.615362
-0.360288
-0.178245
-0.0553637
0.0232134
0.0687596
0.0897225
-0.6735
-0.699308
-0.720635
-0.725842
-0.695369
-0.616216
-0.472246
-0.233876
0.120394
0.608438
1.22922
1.95107
2.7111
3.38811
3.82675
3.95922
3.77028
3.2492
2.45803
1.50351
0.475757
-0.576426
-1.62295
-2.63132
-3.54977
-4.30585
-4.8181
-5.00137
-4.82584
-4.34849
-3.6689
-2.9059
-2.17116
-1.52598
-1.00037
-0.607073
-0.332182
-0.1495
-0.0332519
0.0356801
0.0708558
-0.699873
-0.721435
-0.736902
-0.729387
-0.674818
-0.551533
-0.331659
0.0284281
0.578604
1.34671
2.36333
3.59529
4.80562
5.85308
6.74883
7.1051
6.69271
5.76686
4.41961
2.81659
1.08737
-0.658736
-2.41631
-4.12449
-5.6964
-7.0329
-8.02509
-8.47863
-8.07228
-7.17273
-5.97358
-4.64846
-3.40819
-2.31893
-1.51779
-0.932104
-0.531659
-0.270497
-0.106547
-0.00860169
0.0446719
-0.723767
-0.740285
-0.748457
-0.725625
-0.642195
-0.465961
-0.154366
0.353829
1.14424
2.27543
3.83446
5.8025
7.76277
9.42173
10.8377
11.364
10.629
9.16097
7.06957
4.59748
1.93594
-0.733189
-3.41884
-6.02789
-8.43265
-10.4861
-12.032
-12.7853
-12.1499
-10.7991
-9.00541
-6.98975
-5.06644
-3.36115
-2.17301
-1.33304
-0.772958
-0.415014
-0.193875
-0.0619944
0.0120656
-0.746267
-0.759363
-0.759384
-0.720104
-0.605273
-0.37124
0.0413126
0.714224
1.80406
3.40867
5.668
8.59607
12.2711
15.4383
17.6101
18.4402
17.1775
14.9326
11.3113
7.15457
3.19129
-0.775923
-4.72418
-8.5392
-12.6307
-16.1963
-18.3367
-19.4173
-18.4155
-16.4816
-13.4393
-9.99515
-7.16565
-4.61462
-2.92756
-1.78457
-1.04126
-0.574557
-0.290123
-0.121412
-0.0256595
-0.764459
-0.773715
-0.765744
-0.71103
-0.566862
-0.277688
0.23511
1.08034
2.50204
4.67695
7.80729
11.7881
17.07
21.587
24.4881
25.6598
23.8386
20.7701
15.6156
9.77173
4.46898
-0.852393
-6.11174
-11.1539
-16.9105
-21.9409
-24.625
-26.009
-24.6625
-22.1933
-17.9473
-13.0897
-9.32075
-5.88033
-3.68023
-2.2366
-1.31211
-0.737057
-0.389862
-0.184935
-0.0678059