# vtk DataFile Version 3.0
Gravity inversion using rectangular prisms
ASCII
DATASET UNSTRUCTURED_GRID

POINTS	2971	double
100	100	100
100	100	300
100	100	500
100	100	700
100	100	900
100	300	100
100	300	300
100	300	500
100	300	700
100	300	900
100	500	100
100	500	300
100	500	500
100	500	700
100	500	900
100	700	100
100	700	300
100	700	500
100	700	700
100	700	900
100	900	100
100	900	300
100	900	500
100	900	700
100	900	900
100	1100	100
100	1100	300
100	1100	500
100	1100	700
100	1100	900
100	1300	100
100	1300	300
100	1300	500
100	1300	700
100	1300	900
100	1500	100
100	1500	300
100	1500	500
100	1500	700
100	1500	900
100	1700	100
100	1700	300
100	1700	500
100	1700	700
100	1700	900
100	1900	100
100	1900	300
100	1900	500
100	1900	700
100	1900	900
300	100	100
300	100	300
300	100	500
300	100	700
300	100	900
300	300	100
300	300	300
300	300	500
300	300	700
300	300	900
300	500	100
300	500	300
300	500	500
300	500	700
300	500	900
300	700	100
250	650	250
250	650	350
250	750	250
250	750	350
350	650	250
350	650	350
350	750	250
350	750	350
300	700	500
300	700	700
300	700	900
300	900	100
250	850	250
250	850	350
250	950	250
250	950	350
350	850	250
350	850	350
350	950	250
350	950	350
300	900	500
300	900	700
300	900	900
300	1100	100
300	1100	300
300	1100	500
300	1100	700
300	1100	900
300	1300	100
300	1300	300
300	1300	500
300	1300	700
300	1300	900
300	1500	100
300	1500	300
300	1500	500
300	1500	700
300	1500	900
300	1700	100
300	1700	300
300	1700	500
300	1700	700
300	1700	900
300	1900	100
300	1900	300
300	1900	500
300	1900	700
300	1900	900
500	100	100
500	100	300
500	100	500
500	100	700
500	100	900
500	300	100
500	300	300
500	300	500
500	300	700
500	300	900
450	450	50
450	450	150
450	550	50
450	550	150
550	450	50
550	450	150
550	550	50
550	550	150
450	450	250
450	450	350
450	550	250
450	550	350
550	450	250
550	450	350
525	525	225
525	525	275
525	575	225
525	575	275
575	525	225
575	525	275
575	575	225
575	575	275
525	525	325
525	525	375
525	575	325
525	575	375
575	525	325
575	525	375
575	575	325
575	575	375
450	450	450
450	450	550
450	550	450
450	550	550
550	450	450
550	450	550
550	550	450
550	550	550
500	500	700
500	500	900
450	650	50
450	650	150
450	750	50
450	750	150
550	650	50
525	625	125
525	625	175
525	675	125
525	675	175
575	625	125
575	625	175
575	675	125
575	675	175
550	750	50
525	725	125
525	725	175
525	775	125
525	775	175
575	725	125
575	725	175
575	775	125
575	775	175
425	625	225
425	625	275
425	675	225
425	675	275
475	625	225
475	625	275
475	675	225
475	675	275
450	650	350
425	725	225
425	725	275
425	775	225
425	775	275
475	725	225
475	725	275
475	775	225
475	775	275
450	750	350
525	625	225
525	625	275
525	675	225
525	675	275
575	625	225
575	625	275
575	675	225
575	675	275
550	650	350
525	725	225
525	725	275
525	775	225
525	775	275
575	725	225
575	725	275
575	775	225
575	775	275
550	750	350
450	650	450
450	650	550
450	750	450
450	750	550
550	650	450
550	650	550
550	750	450
550	750	550
500	700	700
500	700	900
450	850	50
450	850	150
450	950	50
450	950	150
550	850	50
550	850	150
550	950	50
550	950	150
450	850	250
450	850	350
450	950	250
450	950	350
525	825	225
525	825	275
525	875	225
525	875	275
575	825	225
575	825	275
575	875	225
575	875	275
550	850	350
550	950	250
550	950	350
450	850	450
450	850	550
450	950	450
450	950	550
550	850	450
550	850	550
550	950	450
550	950	550
500	900	700
500	900	900
500	1100	100
450	1050	250
450	1050	350
450	1150	250
450	1150	350
550	1050	250
550	1050	350
550	1150	250
550	1150	350
500	1100	500
500	1100	700
500	1100	900
500	1300	100
500	1300	300
500	1300	500
500	1300	700
500	1300	900
500	1500	100
500	1500	300
500	1500	500
500	1500	700
500	1500	900
500	1700	100
500	1700	300
500	1700	500
500	1700	700
500	1700	900
500	1900	100
500	1900	300
500	1900	500
500	1900	700
500	1900	900
700	100	100
700	100	300
700	100	500
700	100	700
700	100	900
650	250	50
650	250	150
650	350	50
650	350	150
750	250	50
750	250	150
750	350	50
750	350	150
650	250	250
650	250	350
650	350	250
650	350	350
750	250	250
750	250	350
750	350	250
725	325	325
725	325	375
725	375	325
725	375	375
775	325	325
775	325	375
775	375	325
775	375	375
650	250	450
650	250	550
650	350	450
650	350	550
750	250	450
750	250	550
750	350	450
750	350	550
700	300	700
700	300	900
650	450	50
625	425	125
625	425	175
625	475	125
625	475	175
675	425	125
675	425	175
675	475	125
675	475	175
650	550	50
625	525	125
625	525	175
625	575	125
625	575	175
675	525	125
675	525	175
675	575	125
675	575	175
750	450	50
750	450	150
750	550	50
725	525	125
725	525	175
725	575	125
725	575	175
775	525	125
775	525	175
775	575	125
775	575	175
625	425	225
625	425	275
625	475	225
625	475	275
675	425	225
675	425	275
675	475	225
675	475	275
625	425	325
625	425	375
625	475	325
625	475	375
675	425	325
675	425	375
675	475	325
675	475	375
625	525	225
625	525	275
625	575	225
625	575	275
675	525	225
675	525	275
675	575	225
675	575	275
625	525	325
625	525	375
625	575	325
625	575	375
675	525	325
675	525	375
675	575	325
675	575	375
725	425	225
725	425	275
725	475	225
725	475	275
775	425	225
775	425	275
775	475	225
775	475	275
725	425	325
725	425	375
725	475	325
725	475	375
775	425	325
775	425	375
775	475	325
775	475	375
725	525	225
725	525	275
725	575	225
725	575	275
775	525	225
775	525	275
775	575	225
775	575	275
725	525	325
725	525	375
725	575	325
725	575	375
775	525	325
775	525	375
775	575	325
775	575	375
650	450	450
650	450	550
650	550	450
650	550	550
750	450	450
750	450	550
750	550	450
750	550	550
700	500	700
700	500	900
625	625	25
625	625	75
625	675	25
625	675	75
675	625	25
675	625	75
675	675	25
675	675	75
625	625	125
625	625	175
625	675	125
625	675	175
675	625	125
675	625	175
675	675	125
675	675	175
625	725	25
625	725	75
625	775	25
625	775	75
675	725	25
675	725	75
675	775	25
675	775	75
625	725	125
625	725	175
625	775	125
625	775	175
675	725	125
675	725	175
675	775	125
675	775	175
725	625	25
725	625	75
725	675	25
725	675	75
775	625	25
775	625	75
775	675	25
775	675	75
725	625	125
725	625	175
725	675	125
725	675	175
775	625	125
775	625	175
775	675	125
775	675	175
725	725	25
725	725	75
725	775	25
725	775	75
775	725	25
775	725	75
775	775	25
775	775	75
725	725	125
725	725	175
725	775	125
725	775	175
775	725	125
775	725	175
775	775	125
775	775	175
650	650	250
625	625	325
625	625	375
625	675	325
625	675	375
675	625	325
675	625	375
675	675	325
675	675	375
650	750	250
650	750	350
750	650	250
750	650	350
750	750	250
750	750	350
650	650	450
650	650	550
650	750	450
650	750	550
750	650	450
750	650	550
750	750	450
750	750	550
700	700	700
700	700	900
650	850	50
625	825	125
625	825	175
625	875	125
625	875	175
675	825	125
675	825	175
675	875	125
675	875	175
650	950	50
625	925	125
625	925	175
625	975	125
625	975	175
675	925	125
675	925	175
675	975	125
675	975	175
750	850	50
725	825	125
725	825	175
725	875	125
725	875	175
775	825	125
775	825	175
775	875	125
775	875	175
750	950	50
750	950	150
625	825	225
625	825	275
625	875	225
625	875	275
675	825	225
675	825	275
675	875	225
675	875	275
625	825	325
625	825	375
625	875	325
625	875	375
675	825	325
675	825	375
675	875	325
675	875	375
625	925	225
625	925	275
625	975	225
625	975	275
675	925	225
675	925	275
675	975	225
675	975	275
625	925	325
625	925	375
625	975	325
625	975	375
675	925	325
675	925	375
675	975	325
675	975	375
725	825	225
725	825	275
725	875	225
725	875	275
775	825	225
775	825	275
775	875	225
775	875	275
750	850	350
725	925	225
725	925	275
725	975	225
725	975	275
775	925	225
775	925	275
775	975	225
775	975	275
725	925	325
725	925	375
725	975	325
725	975	375
775	925	325
775	925	375
775	975	325
775	975	375
650	850	450
650	850	550
650	950	450
650	950	550
750	850	450
750	850	550
750	950	450
750	950	550
700	900	700
700	900	900
650	1050	50
650	1050	150
650	1150	50
650	1150	150
750	1050	50
750	1050	150
750	1150	50
750	1150	150
650	1050	250
625	1025	325
625	1025	375
625	1075	325
625	1075	375
675	1025	325
675	1025	375
675	1075	325
675	1075	375
650	1150	250
650	1150	350
750	1050	250
725	1025	325
725	1025	375
725	1075	325
725	1075	375
775	1025	325
775	1025	375
775	1075	325
775	1075	375
750	1150	250
750	1150	350
650	1050	450
650	1050	550
650	1150	450
650	1150	550
750	1050	450
750	1050	550
750	1150	450
750	1150	550
700	1100	700
700	1100	900
700	1300	100
650	1250	250
650	1250	350
650	1350	250
650	1350	350
750	1250	250
750	1250	350
750	1350	250
750	1350	350
700	1300	500
700	1300	700
700	1300	900
700	1500	100
650	1450	250
650	1450	350
650	1550	250
650	1550	350
750	1450	250
750	1450	350
750	1550	250
750	1550	350
700	1500	500
700	1500	700
700	1500	900
700	1700	100
650	1650	250
650	1650	350
650	1750	250
650	1750	350
750	1650	250
750	1650	350
750	1750	250
750	1750	350
700	1700	500
700	1700	700
700	1700	900
700	1900	100
700	1900	300
700	1900	500
700	1900	700
700	1900	900
900	100	100
900	100	300
900	100	500
900	100	700
900	100	900
900	300	100
850	250	250
850	250	350
850	350	250
850	350	350
950	250	250
950	250	350
950	350	250
950	350	350
900	300	500
900	300	700
900	300	900
850	450	50
850	450	150
850	550	50
825	525	125
825	525	175
825	575	125
825	575	175
875	525	125
875	525	175
875	575	125
875	575	175
950	450	50
950	450	150
950	550	50
950	550	150
825	425	225
825	425	275
825	475	225
825	475	275
875	425	225
875	425	275
875	475	225
875	475	275
825	425	325
825	425	375
825	475	325
825	475	375
875	425	325
875	425	375
875	475	325
875	475	375
825	525	225
825	525	275
825	575	225
825	575	275
875	525	225
875	525	275
875	575	225
875	575	275
825	525	325
825	525	375
825	575	325
825	575	375
875	525	325
875	525	375
875	575	325
875	575	375
950	450	250
925	425	325
925	425	375
925	475	325
925	475	375
975	425	325
975	425	375
975	475	325
975	475	375
925	525	225
925	525	275
925	575	225
925	575	275
975	525	225
975	525	275
975	575	225
975	575	275
925	525	325
925	525	375
925	575	325
925	575	375
975	525	325
975	525	375
975	575	325
975	575	375
850	450	450
850	450	550
850	550	450
850	550	550
950	450	450
950	450	550
950	550	450
950	550	550
900	500	700
900	500	900
850	650	50
825	625	125
825	625	175
825	675	125
825	675	175
875	625	125
875	625	175
875	675	125
875	675	175
850	750	50
825	725	125
825	725	175
[...]
CELL_DATA	2971
SCALARS model double 1
LOOKUP_TABLE table0
0.0160265
-0.17219
-2.51254
-2.53681
-1.58929
0.0254033
0.763919
-4.75438
-3.45348
-1.54846
0.0485425
0.387274
-9.14505
-4.65328
-1.45343
-0.00881205
1.26256
-14.1758
-5.63014
-1.43519
0.015088
0.612138
-9.94908
-5.34706
-1.46848
0.0447077
-0.62628
-8.2164
-4.59286
-1.41655
0.0768447
-0.315974
-6.54828
-3.3621
-1.17155
0.0657519
-0.656187
-4.41852
-2.15464
-0.979904
0.0687691
-0.573862
-0.4732
-1.56552
-1.21309
-0.00356385
0.493196
-0.319075
-2.33723
-1.89901
-0.0169229
0.819597
-1.17599
-2.17893
-0.86682
0.0577504
-1.62803
-2.47545
0.356737
1.0584
0.0757516
-3.71084
-0.57383
4.19497
3.41647
0.0553058
-3.64407
-6.19098
-0.456887
-6.92856
-16.6423
-1.88172
-13.6712
-2.54944
3.17824
6.79191
4.814
0.0892395
-2.18921
-15.1924
0.453644
-14.6377
-13.5533
-15.7576
-6.70663
-16.3831
0.173385
5.04434
4.31502
0.0393893
-2.72867
-0.858876
2.09212
2.90615
0.0925765
-3.83848
0.314266
0.765673
1.7678
-0.00126831
-1.22414
-2.12506
-0.217397
0.733753
-0.0125662
0.124068
-2.1939
-1.82015
-0.804911
-0.0597517
1.35483
-7.2589
-5.18068
-2.79231
-0.0177864
1.31087
-12.7107
-3.47349
-0.299387
0.0523016
-3.57397
0.241634
4.94906
3.85624
0.161492
0.626761
0.522243
-3.68129
0.405826
-0.44467
0.91172
5.53985
-12.0822
7.48972
11.1636
22.0629
30.0906
28.6961
87.8847
87.9806
88.0419
88.1087
88.1946
88.1832
88.3992
88.3299
54.7566
54.7752
54.7936
54.81
54.8562
54.8442
54.9014
54.883
32.5856
32.624
32.6253
32.6471
32.5829
32.6361
32.6609
32.6746
18.5463
9.16952
-0.360032
-6.87378
-0.203421
-7.12147
-0.678592
75.746
76.9015
76.0985
77.2842
77.7881
77.906
78.3733
78.3368
-1.25097
72.6051
73.8469
72.4402
73.7408
75.1432
74.9451
74.9648
74.8373
34.6927
34.7495
34.7827
34.7919
34.8911
34.8913
34.9467
34.9297
66.9838
38.5433
38.5891
38.4156
38.5602
38.7265
38.7355
38.6882
38.7268
69.0502
119.884
120.112
119.95
120.157
120.217
120.321
120.301
120.375
104.625
122.567
122.784
122.526
122.754
122.925
123.003
122.88
122.969
106.306
32.1001
32.4192
32.8692
33.0018
42.6051
37.4221
43.1593
37.943
27.5792
12.3578
0.369992
-3.14824
0.0874808
0.248793
0.680174
5.08811
0.51087
-1.85515
19.0722
27.1694
-17.585
11.2332
94.2434
94.3055
94.1503
94.2389
94.5826
94.5142
94.4117
94.4181
60.7143
29.6655
34.6287
34.332
34.3319
34.3404
34.3296
34.361
34.3571
34.3017
34.333
20.5568
11.126
0.0470037
-8.76568
-9.18692
-7.55006
-9.178
-10.3119
-9.51462
-9.12977
-9.46608
2.17409
9.45317
7.98843
0.0291405
-5.3602
0.568663
5.32512
5.73946
0.0248594
-4.61113
-1.30242
3.30632
3.72417
0.0369973
-2.90197
-0.39042
-0.426817
0.657024
-0.112835
2.92163
-11.3931
-7.01445
-3.02677
0.00816122
0.678402
-10.6499
-2.6119
0.231644
0.0362552
0.293158
0.0878914
-0.829438
0.0164973
-0.157877
-0.0690244
1.92248
0.682427
-3.09244
-18.5875
5.49008
-3.71098
-4.3554
-2.29462
7.27094
7.28255
7.3686
7.34989
7.27553
7.28311
7.37106
7.3508
6.24425
6.26082
6.23105
6.27309
6.23928
6.27108
6.23594
6.28072
8.44657
5.20696
-0.710154
11.0952
11.6643
13.2394
12.4546
11.2964
11.838
13.0321
12.5069
5.01772
98.6134
100.048
100.519
100.795
99.3998
100.636
101.812
101.534
1.04227
15.0806
10.593
91.5695
92.2144
94.0919
93.3391
91.3414
92.1216
93.7536
93.2394
67.4449
67.6274
67.9011
67.8997
67.5917
67.7175
68.0204
67.987
104.998
105.047
105.11
105.129
105.066
105.099
105.18
105.183
147.923
148.115
148.199
148.303
148.131
148.237
148.46
148.447
140.974
141.019
141.037
141.058
141.071
141.082
141.144
141.126
82.5712
82.7119
82.9764
82.975
82.5914
82.7232
83.0022
82.9891
117.387
117.442
117.528
117.535
117.39
117.444
117.534
117.538
161.434
161.562
161.786
161.783
161.438
161.564
161.792
161.787
154.111
154.124
154.176
154.171
154.116
154.127
154.183
154.174
41.1796
41.4034
51.6873
46.4431
42.3849
42.2353
53.3184
47.47
29.2898
11.9632
6.03656
9.17768
6.48744
10.0701
11.0941
13.3211
11.5278
14.1192
127.431
128.196
127.831
128.384
129.004
128.821
129.464
129.066
7.28083
11.6454
7.42145
12.5294
11.1265
14.9963
10.7286
15.6954
128.506
129.009
128.259
128.874
130.083
129.696
129.702
129.493
12.7128
24.1141
14.2851
26.0533
12.984
25.2593
14.6053
27.4004
143.509
143.621
144.399
144.023
143.405
143.607
144.331
144.009
14.3654
26.3253
12.8598
26.2861
14.7843
27.6658
13.08
27.3551
144.379
143.999
143.534
143.627
144.292
143.971
143.382
143.582
182.331
153.249
153.249
153.265
153.267
153.311
153.299
153.333
153.32
181.684
152.713
196.865
160.948
193.375
159.028
64.1706
56.4095
64.3759
56.4575
66.1637
57.2806
66.1035
57.2095
42.6088
16.2044
4.06708
100.002
100.158
97.8389
99.3381
101.299
100.904
98.891
99.9754
0.431834
12.2907
11.7251
10.2487
10.9677
12.3593
11.8317
10.2825
11.1313
10.45
94.5254
93.6903
92.4259
92.9101
94.0943
93.5521
91.9779
92.7913
1.62853
16.0362
145.153
145.18
144.803
144.978
145.371
145.301
144.977
145.08
133.124
133.127
133.056
133.083
133.195
133.186
133.119
133.138
65.9291
65.9432
65.5536
65.7478
66.0314
66.0196
65.6772
65.8277
95.5274
95.5443
95.3881
95.455
95.5848
95.5871
95.444
95.4957
149.955
149.871
149.528
149.632
149.913
149.853
149.497
149.617
140.239
68.7562
68.7242
68.4067
68.5261
68.7914
68.7498
68.4692
68.557
100.398
100.402
100.259
100.307
100.402
100.407
100.264
100.312
51.8446
46.1997
42.0884
41.9748
52.6022
46.8246
41.7612
42.2044
31.8679
15.1554
-0.0794434
0.741882
0.00860911
0.371572
-0.111746
1.21151
-0.254157
1.8028
-9.339
-10.121
-10.1307
-10.2063
-10.1926
-10.1129
-10.1289
-10.2026
-10.193
-2.84929
-22.9341
-16.7244
-9.1345
-9.15813
-9.2325
-9.22708
-9.11026
-9.14339
-9.2119
-9.21395
-29.068
-24.3779
2.66303
2.70762
2.63989
2.6908
2.66535
2.70207
2.62597
2.68138
16.6532
12.406
0.000700928
-6.00782
-14.722
-14.2528
-14.625
-4.72668
-7.24947
16.8035
1.91706
10.2829
14.5177
11.06
-0.0459384
-14.7011
-8.35948
-2.4154
-6.83213
17.4793
11.2084
-1.85926
5.05959
13.6022
12.8137
8.80215
0.0523404
-1.36195
-19.9103
-1.77765
-16.5957
-16.3559
-22.5561
5.11162
-17.4745
2.9832
4.26301
3.77254
0.0149926
0.100121
-12.5218
-6.44957
-2.03404
-0.0123923
0.632484
-6.6893
-1.39694
0.181568
0.00781125
0.000516582
-10.016
-4.46409
0.0636944
-1.74398
-7.57186
-10.6553
-0.15592
4.72533
5.45748
3.28161
0.652581
11.305
8.79319
73.8565
74.0531
75.7902
74.9764
73.3706
73.8674
75.0957
74.7008
0.335725
1.18391
2.29983
26.3377
69.8062
69.9165
70.2048
70.1626
69.7151
69.8748
70.1379
70.1278
103.834
103.862
103.955
103.951
103.8
103.842
103.922
103.931
139.664
139.721
139.978
139.923
139.451
139.601
139.729
139.787
137.273
137.273
137.336
137.318
137.226
137.243
137.281
137.284
37.6229
79.8614
79.8823
79.9546
79.9503
79.7599
79.8128
79.8437
79.8764
82.0731
82.0532
82.2813
82.187
81.6457
81.8281
81.8137
81.9412
103.66
103.659
103.706
103.688
103.508
103.56
103.544
103.583
32.6231
32.0498
41.4467
36.1738
27.3256
28.8086
32.9842
31.6191
19.0067
7.72751
17.185
119.206
119.06
119.945
119.382
117.534
118.407
118.094
118.666
17.647
119.615
119.045
118.83
118.707
117.759
118.323
117.049
118.023
4.86462
55.3298
54.7076
55.4611
54.9017
53.3746
53.9873
53.743
54.2471
5.68431
56.4244
55.9258
56.1984
55.8508
54.8981
55.3198
54.4355
55.2113
171.805
144.871
166.259
140.767
104.614
104.591
104.68
104.632
104.111
104.297
104.184
104.335
110.149
110.132
110.161
110.14
109.996
110.031
110.005
110.035
99.6183
99.5622
99.4886
99.4902
99.1326
99.2687
99.0074
99.2028
105.993
105.968
105.953
105.943
105.837
105.864
105.801
105.841
51.1809
43.0449
50.9609
42.8986
39.9681
37.249
39.6959
37.0637
27.8468
11.1147
9.25623
75.5473
74.7635
73.765
74.1513
74.7463
74.4602
73.3239
73.9397
1.33093
19.1212
2.88479
31.4867
1.26601
0.886956
123.309
123.202
123.037
123.051
123.032
123.053
122.793
122.916
110.373
56.811
80.1378
65.8263
65.7241
65.6399
65.6204
65.386
65.484
65.2347
65.3944
75.2501
75.2276
75.1861
75.1859
75.0955
75.1228
75.0382
75.0847
21.4829
54.6052
54.6007
54.56
54.5727
54.4843
54.518
54.44
54.4912
40.3977
35.6428
31.3154
32.0588
31.8117
31.0542
25.9076
28.8741
22.8724
12.3997
-0.2649
-2.10244
29.6879
-0.694756
31.0959
-3.68834
32.1675
24.515
43.5276
13.4394
21.5094
14.3711
0.244453
10.6172
2.27275
39.1741
3.67048
39.5765
13.7652
84.8834
85.0928
85.5001
85.4791
85.7971
85.6081
86.5429
86.0371
48.7448
78.3844
78.412
78.444
78.457
78.4476
78.4694
78.513
78.517
88.1786
88.2681
88.2701
88.3426
88.4095
88.4407
88.5203
88.5223
98.0927
98.1145
98.1309
98.1398
98.173
98.1834
98.2144
98.2104
94.5448
94.6665
94.8098
94.859
94.6962
94.7717
94.9819
94.9752
104.705
142.458
127.663
38.0609
39.9751
43.3521
42.5306
45.5409
44.0873
51.706
47.0934
32.2101
17.1203
1.64316
37.2896
0.936449
4.41916
12.7642
85.0075
84.9357
84.5988
84.8057
86.0181
85.5039
85.436
85.3174
2.80085
40.2494
91.9608
92.0463
91.8526
91.9781
92.2281
92.2371
92.119
92.1716
114.216
114.237
114.206
114.233
114.305
114.313
114.297
114.309
50.4527
50.4808
50.2722
50.3875
50.7495
50.6569
50.5248
50.5435
94.9609
94.979
94.9107
94.9455
95.0571
95.0502
94.9994
95.014
146.925
142.632
99.7975
99.8351
99.5411
99.6948
100.011
99.9605
99.7541
99.8176
119.903
119.908
119.838
119.866
119.942
119.933
119.875
119.891
43.7812
42.6104
40.4421
41.2591
52.0134
47.0507
47.2928
45.0248
31.4988
15.5412
-0.0299109
-4.30864
8.63964
-8.64342
-3.79595
23.141
20.0254
-7.93098
-2.12325
12.7918
13.1515
8.1211
0.00329672
-1.68873
-13.9342
-3.8285
-0.139049
0.00204733
-0.771343
2.32396
-0.499166
-0.480268
0.0107696
5.24329
3.90952
-0.777667
-2.26502
-3.3861
7.24536
4.7645
0.449653
-2.71945
-2.86821
-1.09513
-0.397462
2.16192
-0.486803
0.17221
-1.39698
0.794106
-3.61914
-24.0922
-9.14741
-32.4129
-32.4565
-32.4386
-32.4752
-32.5064
-32.522
-32.5366
-32.5444
-11.5371
-11.6389
-11.5577
-11.6405
-11.8946
-11.8567
-11.9407
-11.8698
-35.0436
-35.0886
-35.0286
-35.0782
-35.1757
-35.1816
-35.1681
-35.1761
-39.8842
-60.5868
-79.0133
-79.1709
-79.1856
-79.2758
-79.3868
-79.3675
-79.5641
-79.4825
-77.4294
-8.8865
-9.8589
-9.4921
-10.3154
-15.3422
-14.0178
-19.9251
-16.0768
-7.54568
-1.66884
-0.383324
-2.6138
-0.154265
2.17941
-7.46148
-53.844
-6.17864
-49.4
-50.0676
-49.4081
-50.0628
-51.5918
-50.9822
-51.3682
-50.9217
-7.1495
-7.24742
-7.10797
-7.23617
-7.6545
-7.54243
-7.61918
-7.53681
-15.9337
-15.9683
-15.9163
-15.9581
-16.0984
-16.0783
-16.0849
-16.0706
-10.8297
-10.9737
-10.9037
-11.007
-11.3373
-11.2729
-11.4044
-11.3018
-18.9395
-18.9837
-18.9785
-19.0096
-19.1075
-19.0961
-19.144
-19.1206
-94.1932
-94.3248
-94.2332
-94.356
-94.5361
-94.5457
-94.5999
-94.5857
-64.5449
-64.554
-64.5442
-64.5531
-64.6799
-64.6416
-64.6835
-64.6432
-98.2478
-98.3883
-98.2531
-98.3861
-98.6207
-98.6217
-98.6129
-98.6149
-67.6146
-67.626
-67.6427
-67.6451
-67.7559
-67.7172
-67.7817
-67.7351
-9.36889
-10.3577
-9.57576
-10.5043
-23.4417
-17.7176
-23.6671
-17.8627
-9.43126
-0.622838
-0.232813
11.7413
0.0523427
9.01426
-3.61177
-21.9379
-0.931309
11.0075
-26.1221
-26.2466
-26.1443
-26.2803
-26.5118
-26.4794
-26.5236
-26.5049
-56.8409
-56.8972
-56.8816
-56.925
-57.0011
-57.005
-57.0364
-57.0293
-33.2554
-57.965
-57.9993
-57.9599
-57.9956
-58.0849
-58.0808
-58.0757
-58.0745
-94.8808
-94.995
-94.7557
-94.9315
-95.2871
-95.2148
-95.1526
-95.142
-98.8101
-98.8333
-98.8211
-98.8419
-98.9254
-98.9082
-98.9306
-98.9132
-62.1983
-62.2374
-62.0602
-62.1602
-62.3815
-62.3454
-62.2062
-62.2568
-85.577
-85.5875
-85.5386
-85.5623
-85.6524
-85.6372
-85.6089
-85.609
-9.74332
-9.83728
-9.51413
-9.06808
-20.0545
-15.4837
-15.451
-12.9456
-1.58146
4.09093
0.103657
-0.643659
0.216928
0.495185
-0.00152586
2.3099
0.267266
0.582026
-14.6931
-8.22433
36.4556
36.5526
36.7709
36.757
36.6017
36.624
36.8931
36.8217
24.6449
-2.97701
-5.46774
54.591
54.656
54.8905
54.8594
54.6262
54.6849
54.9368
54.8905
32.2372
32.2544
32.3577
32.3401
32.265
32.2746
32.3862
32.3608
30.8702
30.9506
30.9373
30.9939
30.8643
30.9431
30.9656
31.0052
21.3639
12.7996
5.61493
55.157
55.8086
57.2024
56.7252
55.4541
56.0001
57.3975
56.8768
21.3392
111.912
112.579
113.101
113.041
112.364
112.766
113.648
113.245
5.48322
59.4306
60.0451
61.3934
60.9452
59.3712
60.0199
61.3804
60.9399
21.0183
118.104
118.655
119.377
119.147
118.182
118.678
119.355
119.154
119.414
119.6
119.764
119.821
119.548
119.673
119.886
119.892
121.227
121.254
121.328
121.335
121.257
121.275
121.358
121.357
170.435
147.577
137.085
137.248
137.409
137.462
137.154
137.288
137.486
137.506
132.987
133.027
133.106
133.112
133.02
133.05
133.142
133.136
184.97
158.292
59.3709
55.6949
66.1005
59.2273
63.5603
57.7734
70.1293
61.3397
47.5314
20.6914
20.2033
114.835
114.878
113.881
114.496
115.505
115.113
114.487
114.717
4.21143
66.714
66.3793
64.9058
65.7422
67.0786
66.6085
65.1738
65.9452
21.4543
123.137
122.971
122.236
122.609
123.09
122.979
122.229
122.633
3.5224
76.7304
76.4971
74.8405
75.8402
76.9353
76.5753
75.3612
75.9898
172.389
149.25
125.473
125.487
125.095
125.272
125.568
125.545
125.179
125.325
125.062
125.052
124.994
125.01
125.078
125.064
125.008
125.02
182.138
154.261
134.415
134.408
134.022
134.183
134.459
134.431
134.083
134.21
129.093
129.079
129.022
129.035
129.104
129.086
129.032
129.041
66.4303
59.3932
60.7591
56.882
70.1561
61.3385
64.006
58.5422
47.9017
20.342
-0.0432173
0.111665
0.0318073
-0.833334
0.367449
0.48211
-0.0472896
0.161608
41.6588
41.6038
41.4893
41.4813
41.6772
41.6352
41.4243
41.4923
31.7481
-14.3808
3.52332
47.2322
47.1964
46.9427
47.0376
47.3004
47.2182
47.0416
47.0623
35.5495
-12.2009
5.06633
29.6013
29.5344
29.5275
29.4639
29.6287
29.5493
29.5242
29.4626
21.3613
11.3229
0.094729
-4.11942
-13.3328
-1.42602
1.29887
0.0226177
-1.11405
6.44257
0.184521
-1.02047
0.0439033
5.24858
5.12243
-3.44602
-9.29544
7.0666
3.55025
-8.7249
-10.4484
-10.4779
-10.5491
-10.5453
-10.4618
-10.4863
-10.5573
-10.5506
-11.2911
-11.3877
-11.3467
-11.4177
-11.4645
-11.4427
-11.405
-11.446
-9.35682
-4.61213
-2.04538
-10.0589
-11.7386
-68.4986
-68.916
-69.9548
-69.6658
-69.4205
-69.3914
-70.841
-70.1529
-3.11076
-22.2778
-14.2245
-83.7311
-84.0732
-85.343
-84.9022
-83.534
-84.0311
-85.2834
-84.8755
-76.0416
-76.1783
-76.4383
-76.4191
-76.1402
-76.2473
-76.5664
-76.502
-109.788
-109.828
-109.907
-109.915
-109.827
-109.861
-109.952
-109.95
-138.208
-138.35
-138.442
-138.514
-138.446
-138.478
-138.693
-138.652
-140.573
-140.589
-140.631
-140.625
-140.625
-140.637
-140.688
-140.676
-88.8651
-88.9928
-89.3128
-89.2673
-88.8608
-88.9957
-89.2974
-89.2645
-116.363
-116.418
-116.491
-116.506
-116.359
-116.415
-116.484
-116.502
-156.15
-156.224
-156.417
-156.412
-156.136
-156.22
-156.402
-156.406
-149.76
-40.6326
-40.631
-49.2658
-44.9462
-42.8228
-41.9031
-52.2152
-46.5847
-27.2363
-9.16941
-22.4072
-112.351
-112.903
-113.071
-113.184
-113.497
-113.532
-114.298
-113.838
-21.5418
-111.425
-111.837
-110.703
-111.55
-112.905
-112.428
-112.065
-112.107
-28.3888
-132.492
-132.915
-133.378
-133.26
-132.402
-132.876
-133.259
-133.222
-29.302
-132.8
-132.677
-131.853
-132.315
-132.742
-132.658
-131.829
-132.305
-167.709
-146.304
-146.308
-146.325
-146.322
-146.392
-146.372
-146.416
-146.387
-172.911
-150.359
-150.358
-150.371
-150.367
-150.463
-150.424
-150.473
-150.432
-190.342
-160.138
-195.732
-163.675
-163.637
-163.68
-163.643
-163.673
-163.644
-163.679
-163.65
-59.7745
-53.2794
-59.9811
-53.3993
-63.8011
-55.5081
-64.0093
-55.6375
-37.1951
-10.2564
-9.62456
-67.8141
-67.4192
-66.5515
-66.9371
-68.5081
-67.863
-67.1196
-67.338
-0.047202
-11.5499
-14.5042
-82.1462
-81.7114
-80.1245
-80.904
-82.1128
-81.6956
-80.0919
-80.8843
-1.38501
-16.7244
-16.1921
-15.2588
-15.6986
-16.4907
-16.1041
-14.7189
-15.5368
-156.766
-156.806
-156.538
-156.677
-157.015
-156.946
-156.769
-156.808
-167.879
-167.888
-167.852
-167.873
-167.961
-167.941
-167.929
-167.923
-98.0831
-98.0872
-97.6669
-97.8647
-98.2312
-98.1718
-97.8187
-97.9463
-136.567
-136.572
-136.411
-136.47
-136.625
-136.609
-136.466
-136.506
-174.762
-174.724
-174.488
-174.569
-174.743
-174.713
-174.468
-174.557
-176.769
-176.748
-176.729
-176.725
-176.754
-176.738
-176.713
-176.715
-111.613
-111.585
-111.18
-111.348
-111.583
-111.569
-111.131
-111.326
-143.7
-143.686
-143.535
-143.579
-143.685
-143.677
-143.518
-143.568
-48.5423
-48.5331
-48.5305
-48.5251
-48.5591
-48.5457
-48.5458
-48.5368
-43.5667
-38.7504
-38.7445
-38.7359
-38.7337
-38.7621
-38.7536
-38.7462
-38.7418
-38.4237
-51.5254
-51.5112
-51.5106
-51.5012
-51.5248
-51.5116
-51.5097
-51.5014
-45.2788
-41.2053
-41.1966
-41.188
-41.1841
-41.204
-41.1964
-41.1861
-41.1836
-39.9087
-21.626
-3.82145
0.581598
-1.38261
0.839885
-2.01088
0.572294
-0.748958
0.945694
-2.23921
-7.81288
-7.7264
-7.46593
-7.5231
-7.89773
-7.76519
-7.56337
-7.56436
9.60923
9.66059
9.77137
9.77069
9.61154
9.66507
9.77394
9.77595
61.4404
61.6052
61.8458
61.8363
61.3746
61.5812
61.7997
61.818
58.3427
58.3831
58.4813
58.476
58.3572
58.3945
58.4977
58.4882
-20.4543
-20.3596
-20.1237
-20.1585
-20.4314
-20.3618
-20.0886
-20.1561
5.42633
5.47805
5.5912
5.59068
5.41295
5.46834
5.57972
5.58179
47.7343
47.905
48.1744
48.1491
47.7242
47.8953
48.1488
48.1354
52.8062
52.8391
52.9481
52.9336
52.7844
52.8235
52.9249
52.9173
9.1326
10.2168
21.6431
17.4739
6.74682
8.81512
18.0703
15.5879
13.6274
8.32642
5.57815
54.1326
54.7287
56.3022
55.6817
53.8672
54.6373
56.2326
55.634
21.7177
115.714
116.137
116.886
116.615
115.585
116.085
116.692
116.551
4.99164
47.2459
47.7834
49.3895
48.7057
47.252
47.7998
49.1968
48.6859
19.7575
104.473
104.704
105.468
105.132
103.908
104.502
104.878
104.918
148.938
149.118
149.294
149.347
148.939
149.121
149.307
149.354
158.872
158.918
159.008
159.005
158.892
158.932
159.029
159.019
195.27
180.146
180.132
180.172
180.157
180.161
180.145
180.188
180.169
140.177
140.338
140.564
140.581
140.104
140.295
140.48
140.532
155.714
155.752
155.854
155.84
155.703
155.744
155.839
155.83
190.044
177.483
177.465
177.509
177.488
177.47
177.456
177.493
177.477
65.4222
60.8754
72.8881
72.8783
72.8982
72.8866
72.8885
72.8787
72.8983
72.8868
64.7627
61.4633
58.9671
68.5729
68.562
68.582
68.5695
68.5643
68.5558
68.5725
68.5628
62.5741
44.9509
18.5444
21.734
120.151
119.959
119.243
119.609
119.966
119.89
119.108
119.544
3.8472
73.0743
72.6346
71.5668
72.0769
72.8659
72.5482
71.1437
71.9419
18.1854
108.408
108.14
107.618
107.803
107.821
107.931
107.104
107.609
4.86174
61.8506
61.2513
60.0538
60.6067
61.4936
61.174
59.5093
60.4781
186.574
159.864
135.282
135.249
134.9
135.019
135.265
135.238
134.869
135.003
131.599
131.581
131.523
131.532
131.596
131.579
131.517
131.528
181.25
156.786
128.631
128.591
128.213
128.346
128.552
128.543
128.113
128.289
128.895
128.877
128.811
128.824
128.886
128.871
128.799
128.817
71.7097
63.1954
65.5705
60.3808
67.5507
61.0546
62.1955
58.619
46.4014
19.2285
-0.348179
2.95329
-0.0303632
-1.05955
0.0501859
-1.56527
0.193926
0.719874
45.9751
45.8647
45.7133
45.6999
45.9284
45.8403
45.6506
45.6655
35.7767
-16.5403
4.71386
42.098
42.0417
41.8111
41.8663
41.9964
41.9982
41.6518
41.8088
30.8582
-12.8511
2.54467
29.5738
29.5139
29.4447
29.4176
29.5025
29.4885
29.3744
29.3945
20.6105
10.7449
0.104437
-1.87324
-13.7097
-1.98552
1.01017
0.00750671
-0.290408
8.19764
0.678399
-0.957151
0.0232442
3.07467
7.31865
-2.95797
-1.81903
2.6518
9.07769
5.65608
3.35123
-7.05982
-8.48031
-4.87536
-1.91361
-9.6402
-10.1329
-67.4746
-67.5531
-68.9279
-68.2826
-67.1874
-67.4174
-68.1892
-68.0447
-0.836685
1.51579
-1.82402
-35.7587
-70.8494
-70.9402
-71.246
-71.1765
-70.799
-70.9166
-71.1644
-71.1339
-96.7562
-96.7775
-96.8507
-96.8542
-96.7301
-96.7582
-96.815
-96.8303
-134.508
-134.542
-134.755
-134.714
-134.319
-134.433
-134.532
-134.59
-128.314
-33.9842
-74.3461
-74.3544
-74.4254
-74.4161
-74.2956
-74.324
-74.3676
-74.3815
-87.8539
-87.8224
-88.0521
-87.9625
-87.6038
-87.6881
-87.7889
-87.8197
-101.534
-101.54
-101.582
-101.571
-101.466
-101.496
-101.508
-101.523
-38.0591
-37.9088
-46.8506
-42.3277
-33.9836
-36.0311
-41.1604
-39.6763
-25.0104
-9.86488
-20.1362
-108.71
-108.702
-109.486
-109.012
-107.292
-108.168
-108.152
-108.472
-21.0199
-109.886
-109.383
-109.081
-109.08
-108.527
-108.837
-107.809
-108.568
-4.37279
-61.9198
-61.8037
-62.4676
-62.0261
-60.695
-61.2598
-60.9606
-61.4304
-4.60799
-58.5533
-57.9552
-58.2512
-57.8731
-56.7881
-57.312
-56.4117
-57.2452
-168.273
-142.414
-172.436
-145.491
-117.576
-117.588