# vtk DataFile Version 3.0
Gravity inversion using rectangular prisms
ASCII
DATASET UNSTRUCTURED_GRID

POINTS	1200	double
100	100	100
100	100	300
100	100	500
100	100	700
100	100	900
100	300	100
100	300	300
100	300	500
100	300	700
100	300	900
100	500	100
100	500	300
100	500	500
100	500	700
100	500	900
100	700	100
100	700	300
100	700	500
100	700	700
100	700	900
100	900	100
100	900	300
100	900	500
100	900	700
100	900	900
100	1100	100
100	1100	300
100	1100	500
100	1100	700
100	1100	900
100	1300	100
100	1300	300
100	1300	500
100	1300	700
100	1300	900
100	1500	100
100	1500	300
100	1500	500
100	1500	700
100	1500	900
100	1700	100
100	1700	300
100	1700	500
100	1700	700
100	1700	900
100	1900	100
100	1900	300
100	1900	500
100	1900	700
100	1900	900
300	100	100
300	100	300
300	100	500
300	100	700
300	100	900
300	300	100
300	300	300
300	300	500
300	300	700
300	300	900
300	500	100
300	500	300
300	500	500
300	500	700
300	500	900
300	700	100
250	650	250
250	650	350
250	750	250
250	750	350
350	650	250
350	650	350
350	750	250
350	750	350
300	700	500
300	700	700
300	700	900
300	900	100
250	850	250
250	850	350
250	950	250
250	950	350
350	850	250
350	850	350
350	950	250
350	950	350
300	900	500
300	900	700
300	900	900
300	1100	100
300	1100	300
300	1100	500
300	1100	700
300	1100	900
300	1300	100
300	1300	300
300	1300	500
300	1300	700
300	1300	900
300	1500	100
300	1500	300
300	1500	500
300	1500	700
300	1500	900
300	1700	100
300	1700	300
300	1700	500
300	1700	700
300	1700	900
300	1900	100
300	1900	300
300	1900	500
300	1900	700
300	1900	900
500	100	100
500	100	300
500	100	500
500	100	700
500	100	900
500	300	100
500	300	300
500	300	500
500	300	700
500	300	900
500	500	100
450	450	250
450	450	350
450	550	250
450	550	350
550	450	250
550	450	350
550	550	250
550	550	350
500	500	500
500	500	700
500	500	900
450	650	50
450	650	150
450	750	50
450	750	150
550	650	50
550	650	150
550	750	50
550	750	150
450	650	250
450	650	350
450	750	250
450	750	350
550	650	250
550	650	350
550	750	250
550	750	350
450	650	450
450	650	550
450	750	450
450	750	550
550	650	450
550	650	550
550	750	450
550	750	550
500	700	700
500	700	900
500	900	100
450	850	250
450	850	350
450	950	250
450	950	350
550	850	250
550	850	350
550	950	250
550	950	350
500	900	500
500	900	700
500	900	900
500	1100	100
500	1100	300
500	1100	500
500	1100	700
500	1100	900
500	1300	100
500	1300	300
500	1300	500
500	1300	700
500	1300	900
500	1500	100
500	1500	300
500	1500	500
500	1500	700
500	1500	900
500	1700	100
500	1700	300
500	1700	500
500	1700	700
500	1700	900
500	1900	100
500	1900	300
500	1900	500
500	1900	700
500	1900	900
700	100	100
700	100	300
700	100	500
700	100	700
700	100	900
700	300	100
650	250	250
650	250	350
650	350	250
650	350	350
750	250	250
750	250	350
750	350	250
750	350	350
700	300	500
700	300	700
700	300	900
650	450	50
650	450	150
650	550	50
650	550	150
750	450	50
750	450	150
750	550	50
750	550	150
650	450	250
650	450	350
650	550	250
650	550	350
750	450	250
750	450	350
750	550	250
750	550	350
650	450	450
650	450	550
650	550	450
650	550	550
750	450	450
750	450	550
750	550	450
750	550	550
700	500	700
700	500	900
650	650	50
650	650	150
650	750	50
650	750	150
750	650	50
750	650	150
750	750	50
750	750	150
650	650	250
650	650	350
650	750	250
650	750	350
750	650	250
750	650	350
750	750	250
750	750	350
650	650	450
650	650	550
650	750	450
650	750	550
750	650	450
750	650	550
750	750	450
750	750	550
700	700	700
700	700	900
650	850	50
650	850	150
650	950	50
650	950	150
750	850	50
750	850	150
750	950	50
750	950	150
650	850	250
650	850	350
650	950	250
650	950	350
750	850	250
750	850	350
750	950	250
750	950	350
650	850	450
650	850	550
650	950	450
650	950	550
750	850	450
750	850	550
750	950	450
750	950	550
700	900	700
700	900	900
700	1100	100
650	1050	250
650	1050	350
650	1150	250
650	1150	350
750	1050	250
750	1050	350
750	1150	250
750	1150	350
700	1100	500
700	1100	700
700	1100	900
700	1300	100
650	1250	250
650	1250	350
650	1350	250
650	1350	350
750	1250	250
750	1250	350
750	1350	250
750	1350	350
700	1300	500
700	1300	700
700	1300	900
700	1500	100
650	1450	250
650	1450	350
650	1550	250
650	1550	350
750	1450	250
750	1450	350
750	1550	250
750	1550	350
700	1500	500
700	1500	700
700	1500	900
700	1700	100
650	1650	250
650	1650	350
650	1750	250
650	1750	350
750	1650	250
750	1650	350
750	1750	250
750	1750	350
700	1700	500
700	1700	700
700	1700	900
700	1900	100
700	1900	300
700	1900	500
700	1900	700
700	1900	900
900	100	100
900	100	300
900	100	500
900	100	700
900	100	900
900	300	100
850	250	250
850	250	350
850	350	250
850	350	350
950	250	250
950	250	350
950	350	250
950	350	350
900	300	500
900	300	700
900	300	900
850	450	50
850	450	150
850	550	50
850	550	150
950	450	50
950	450	150
950	550	50
950	550	150
850	450	250
850	450	350
850	550	250
850	550	350
950	450	250
950	450	350
950	550	250
950	550	350
850	450	450
850	450	550
850	550	450
850	550	550
950	450	450
950	450	550
950	550	450
950	550	550
900	500	700
900	500	900
850	650	50
850	650	150
850	750	50
850	750	150
950	650	50
950	650	150
950	750	50
950	750	150
850	650	250
850	650	350
850	750	250
850	750	350
950	650	250
950	650	350
950	750	250
950	750	350
850	650	450
850	650	550
850	750	450
850	750	550
950	650	450
950	650	550
950	750	450
950	750	550
900	700	700
900	700	900
850	850	50
850	850	150
850	950	50
850	950	150
950	850	50
950	850	150
950	950	50
950	950	150
850	850	250
850	850	350
850	950	250
850	950	350
950	850	250
950	850	350
950	950	250
950	950	350
850	850	450
850	850	550
850	950	450
850	950	550
950	850	450
950	850	550
950	950	450
950	950	550
900	900	700
900	900	900
900	1100	100
850	1050	250
850	1050	350
850	1150	250
850	1150	350
950	1050	250
950	1050	350
950	1150	250
950	1150	350
900	1100	500
900	1100	700
900	1100	900
850	1250	50
850	1250	150
850	1350	50
850	1350	150
950	1250	50
950	1250	150
950	1350	50
950	1350	150
850	1250	250
850	1250	350
850	1350	250
850	1350	350
950	1250	250
950	1250	350
950	1350	250
950	1350	350
850	1250	450
850	1250	550
850	1350	450
850	1350	550
950	1250	450
950	1250	550
950	1350	450
950	1350	550
900	1300	700
900	1300	900
850	1450	50
850	1450	150
850	1550	50
850	1550	150
950	1450	50
950	1450	150
950	1550	50
950	1550	150
850	1450	250
850	1450	350
850	1550	250
850	1550	350
950	1450	250
950	1450	350
950	1550	250
950	1550	350
850	1450	450
850	1450	550
850	1550	450
850	1550	550
950	1450	450
950	1450	550
950	1550	450
950	1550	550
900	1500	700
900	1500	900
900	1700	100
850	1650	250
850	1650	350
850	1750	250
850	1750	350
950	1650	250
950	1650	350
950	1750	250
950	1750	350
900	1700	500
900	1700	700
900	1700	900
900	1900	100
900	1900	300
900	1900	500
900	1900	700
900	1900	900
1100	100	100
1100	100	300
1100	100	500
1100	100	700
1100	100	900
1100	300	100
1050	250	250
1050	250	350
1050	350	250
1050	350	350
1150	250	250
1150	250	350
1150	350	250
1150	350	350
1100	300	500
1100	300	700
1100	300	900
1050	450	50
1050	450	150
1050	550	50
1050	550	150
1150	450	50
1150	450	150
1150	550	50
1150	550	150
1050	450	250
1050	450	350
1050	550	250
1050	550	350
1150	450	250
1150	450	350
1150	550	250
1150	550	350
1050	450	450
1050	450	550
1050	550	450
1050	550	550
1150	450	450
1150	450	550
1150	550	450
1150	550	550
1100	500	700
1100	500	900
1100	700	100
1050	650	250
1050	650	350
1050	750	250
1050	750	350
1150	650	250
1150	650	350
1150	750	250
1150	750	350
1050	650	450
1050	650	550
1050	750	450
1050	750	550
1150	650	450
1150	650	550
1150	750	450
1150	750	550
1100	700	700
1100	700	900
1050	850	50
1050	850	150
1050	950	50
1050	950	150
1150	850	50
1150	850	150
1150	950	50
1150	950	150
1050	850	250
1050	850	350
1050	950	250
1050	950	350
1150	850	250
1150	850	350
1150	950	250
1150	950	350
1050	850	450
1050	850	550
1050	950	450
1050	950	550
1150	850	450
1150	850	550
1150	950	450
1150	950	550
1100	900	700
1100	900	900
1100	1100	100
1050	1050	250
1050	1050	350
1050	1150	250
1050	1150	350
1150	1050	250
1150	1050	350
1150	1150	250
1150	1150	350
1050	1050	450
1050	1050	550
1050	1150	450
1050	1150	550
1150	1050	450
1150	1050	550
1150	1150	450
1150	1150	550
1100	1100	700
1100	1100	900
1050	1250	50
1050	1250	150
1050	1350	50
1050	1350	150
1150	1250	50
1150	1250	150
1150	1350	50
1150	1350	150
1050	1250	250
1050	1250	350
1050	1350	250
1050	1350	350
1150	1250	250
1150	1250	350
1150	1350	250
1150	1350	350
1050	1250	450
1050	1250	550
1050	1350	450
1050	1350	550
1150	1250	450
1150	1250	550
1150	1350	450
1150	1350	550
1100	1300	700
1100	1300	900
1050	1450	50
1050	1450	150
1050	1550	50
1050	1550	150
1150	1450	50
1150	1450	150
1150	1550	50
1150	1550	150
1050	1450	250
1050	1450	350
1050	1550	250
1050	1550	350
1150	1450	250
1150	1450	350
1150	1550	250
1150	1550	350
1050	1450	450
1050	1450	550
1050	1550	450
1050	1550	550
1150	1450	450
1150	1450	550
1150	1550	450
1150	1550	550
1100	1500	700
1100	1500	900
1100	1700	100
1050	1650	250
1050	1650	350
1050	1750	250
1050	1750	350
1150	1650	250
1150	1650	350
1150	1750	250
1150	1750	350
1100	1700	500
1100	1700	700
1100	1700	900
1100	1900	100
1100	1900	300
1100	1900	500
1100	1900	700
1100	1900	900
1300	100	100
1300	100	300
1300	100	500
1300	100	700
1300	100	900
1300	300	100
1250	250	250
1250	250	350
1250	350	250
1250	350	350
1350	250	250
1350	250	350
1350	350	250
1350	350	350
1300	300	500
1300	300	700
1300	300	900
1250	450	50
1250	450	150
1250	550	50
1250	550	150
1350	450	50
1350	450	150
1350	550	50
1350	550	150
1250	450	250
1250	450	350
1250	550	250
1250	550	350
1350	450	250
1350	450	350
1350	550	250
1350	550	350
1250	450	450
1250	450	550
1250	550	450
1250	550	550
1350	450	450
1350	450	550
1350	550	450
1350	550	550
1300	500	700
1300	500	900
1250	650	50
1250	650	150
1250	750	50
1250	750	150
1350	650	50
1350	650	150
1350	750	50
1350	750	150
1250	650	250
1250	650	350
1250	750	250
1250	750	350
1350	650	250
1350	650	350
1350	750	250
1350	750	350
1250	650	450
1250	650	550
1250	750	450
1250	750	550
1350	650	450
1350	650	550
1350	750	450
1350	750	550
1300	700	700
1300	700	900
1250	850	50
1250	850	150
1250	950	50
1250	950	150
1350	850	50
1350	850	150
1350	950	50
1350	950	150
1250	850	250
1250	850	350
1250	950	250
1250	950	350
1350	850	250
1350	850	350
[...]
CELL_DATA	1200
SCALARS model double 1
LOOKUP_TABLE table0
0.023363
-0.0305034
-2.68487
-2.5781
-1.53506
0.022232
1.02777
-4.8098
-3.8043
-1.62447
0.0257089
1.43268
-9.20116
-5.51431
-1.65484
0.000704975
1.62941
-15.1887
-7.10568
-1.74538
0.0223023
1.59073
-11.5609
-6.61691
-1.72204
0.0707246
-0.779604
-7.65083
-4.69918
-1.35621
0.0715081
-0.188707
-3.93221
-2.3134
-0.756533
0.0762083
-1.23196
-2.12483
-0.974462
-0.505644
0.0740611
-0.540877
-0.256052
-1.26477
-1.06897
-0.00309153
0.479814
-0.420657
-2.63439
-2.0874
-0.00362119
1.01157
-2.29239
-2.23797
-0.631737
0.0668943
-0.964026
-6.88325
-0.659146
1.27342
0.0833951
-3.48226
-5.28508
3.46946
4.01274
0.078368
-0.607919
-4.72118
0.48929
-6.56207
-14.325
1.28744
-11.3597
-0.682562
-3.59039
6.19698
5.61003
0.0940255
-0.874187
-10.2537
1.18211
-9.53999
-10.4607
-8.80825
-8.71583
-12.1204
-7.98327
3.61465
4.73269
0.0321871
-0.963921
-5.90628
0.531736
2.89034
0.0859157
-2.86449
-1.81764
-0.113739
1.65533
-0.00695464
-0.274228
-2.46406
-0.627801
0.632321
-0.00790173
0.465922
-3.06328
-2.45114
-1.07413
-0.0582999
1.41802
-5.85595
-5.36459
-3.06313
-0.00454322
1.02636
-11.9794
-3.26087
0.21752
0.0475785
-2.89021
-3.81536
5.05469
4.8987
0.218223
-10.3347
-2.63672
11.7373
21.4902
28.2379
32.3688
85.298
73.0601
33.8494
23.2604
11.854
-0.433797
-3.82242
-0.323246
-1.83024
-0.426212
70.8194
-0.673267
67.045
23.1062
42.2471
25.619
43.7375
115.887
106.536
117.813
108.135
28.5919
29.7024
29.697
30.9503
50.2792
41.6904
50.5946
42.6337
35.7438
16.031
0.125441
15.0465
23.0514
-14.5341
2.45553
89.6453
76.219
27.6368
35.4591
33.3429
24.7654
13.6646
0.0263708
-7.37453
-3.21747
8.55856
8.71989
0.00646293
-3.83225
-4.40909
3.0942
5.59543
0.00623342
-2.89453
-4.29811
1.35239
3.36412
0.0282297
-1.30987
-4.73732
-2.36001
0.0965055
-0.117752
3.31715
-9.27346
-7.33071
-3.3089
0.0108001
0.347429
-10.9459
-2.24953
0.879639
0.0546136
1.13865
-4.79435
-14.8222
12.9747
-1.08527
-5.9998
-1.1192
17.2494
3.8946
10.0923
6.78896
-1.47385
19.5
3.13888
98.9133
-0.418103
24.5914
5.69388
99.7352
46.2414
73.9731
136.433
134.441
55.3402
90.8859
149.715
157.188
38.7683
39.4972
59.6523
51.0765
41.7583
41.7389
63.5841
53.7055
39.9713
16.0892
7.95479
129.674
8.76452
129.342
14.4642
150.95
14.5482
150.133
187.886
170.715
188.09
169.463
210.344
193.234
208.918
189.713
75.3777
63.2297
75.6052
63.2513
81.0824
66.0237
81.022
65.8774
60.1616
21.9312
2.72006
96.5083
-0.166653
15.7329
6.09599
97.6066
0.101752
22.6125
137.018
129.582
47.9573
66.5667
146.168
145.753
51.3424
77.0977
59.6644
50.1476
40.6546
40.888
62.7922
52.4211
42.2493
42.555
42.5277
19.3795
0.0245567
-7.53115
0.973404
-1.69989
-21.4047
-8.45035
5.49148
-11.2848
-15.159
-3.81583
17.9253
14.2628
-0.00468576
-5.05264
-15.5906
-10.1931
-12.6346
1.62828
1.02757
21.1517
16.6567
4.94011
13.6544
11.9645
-0.0201686
-8.24614
-10.4879
-0.681307
-9.95851
24.1701
20.9804
4.66343
8.85712
8.93538
11.645
9.2871
0.0346642
-0.709845
-13.673
-1.84588
-10.0173
-5.02929
-10.1876
4.48803
-10.3165
-6.26288
1.64827
3.53206
0.0404262
0.830257
-12.7587
-6.96597
-2.02045
-0.000130244
0.152628
-4.95381
-0.936609
0.514057
0.0367652
-1.09859
-7.72254
0.917241
13.207
-1.35852
-3.64501
-4.36407
6.48923
3.68742
6.37391
4.00338
-0.908332
20.0861
3.80116
81.8109
-0.647663
2.05952
-2.6907
39.9059
44.3044
78.9971
125.067
139.49
18.9151
45.0314
68.8385
84.6806
34.3403
33.4923
52.6033
43.1503
22.2488
25.4014
34.399
32.2853
25.591
9.84453
7.97973
129.077
7.85341
128.727
-4.25158
85.8558
-4.20941
89.8557
181.228
173.987
179.678
169.202
108.609
111.575
108.877
106.732
67.8463
53.3011
67.6537
53.0769
44.7683
39.8446
44.5459
39.5463
39.0195
14.2042
3.25471
80.5849
-0.793379
25.08
-3.58117
43.6447
-1.34633
8.1188
120.693
124.708
39.9081
65.46
64.9801
68.2928
11.2655
28.598
51.3453
41.7892
34.0787
34.2383
32.87
30.7936
21.7471
26.1447
29.5586
14.9347
-0.0268164
-6.26043
13.7735
-0.482569
12.1288
-12.1007
8.33291
15.4761
31.264
10.536
24.3851
16.6244
-0.859458
21.4168
1.08551
46.7808
1.84101
51.73
10.316
95.1521
33.8985
50.7814
69.8625
81.5975
78.3122
91.7702
131.708
133.139
32.262
35.1075
42.1949
40.7166
47.3895
44.6921
59.1404
51.1539
38.1426
20.1771
0.664727
47.1672
0.377591
13.3981
9.92141
93.8381
2.1008
47.4073
70.1656
87.1598
32.1565
58.3108
131.267
137.993
79.4041
98.3861
43.46
41.7267
36.187
38.2947
59.9878
51.8615
49.9686
47.0894
36.7103
18.2978
0.0047975
1.74947
10.9676
-2.39262
-6.85988
24.5341
29.8854
-3.73369
-4.8357
3.04168
12.3867
9.0859
0.0479357
-1.33506
-14.503
-3.434
0.673186
0.00901656
-0.515299
4.30511
-0.398791
-0.795574
0.0140883
6.16462
1.07099
2.7163
-3.10437
-1.23115
6.09409
6.82798
-7.90593
-2.67891
-4.5688
-2.26496
-0.746383
3.42458
-2.32159
9.51912
-0.529895
3.10581
-1.11595
-30.9534
-2.90091
-10.1972
-4.14617
-9.32527
-26.225
-51.6613
-85.0143
-86.8048
-5.2325
-7.21072
-6.51907
-8.40356
-20.9025
-17.9936
-31.4407
-23.0438
-14.1066
-4.26483
-4.09162
-1.55846
-0.811678
0.654708
-5.43583
-129.425
-100.758
-129.028
-106.089
-5.7089
-8.02923
-5.93825
-8.33177
-38.9335
-26.6564
-39.3662
-27.0446
-19.4723
-3.9832
-3.05441
16.7732
-1.39512
10.4564
-2.21895
-27.3887
-0.781534
9.50966
-8.69847
-27.2345
-15.9173
-33.5237
-92.3486
-106.62
-42.0427
-77.6613
-8.05172
-9.47532
-6.20781
-6.80037
-33.2736
-24.165
-20.7978
-17.1299
-8.95716
1.99855
-0.029776
-8.50699
-10.6605
34.0124
39.7044
-0.356022
-15.8194
49.2067
52.3943
8.70904
13.178
27.148
24.5939
8.41305
12.2042
30.7221
25.9097
23.054
14.1266
3.16325
62.4275
15.8196
120.718
2.84793
62.4674
15.3268
124.73
112.12
118.988
175.837
166.755
129.991
138.417
195.965
185.84
61.7978
58.3458
76.8292
66.3675
68.6848
62.3791
84.3267
70.801
59.9895
25.4178
15.5714
121.09
3.23056
66.4551
16.1139
126.584
2.59713
70.7096
175.743
168.535
114.67
122.267
195.052
182.701
128.665
131.926
77.5313
66.9395
65.4085
61.1404
84.4243
70.9719
71.021
64.52
59.5822
25.1631
0.00172375
39.7826
41.8493
-9.90208
-4.0874
42.4476
45.886
-10.3875
-3.7959
15.5889
22.7254
13.4877
0.111369
-2.97735
-13.3547
0.484888
2.97485
0.0249648
-0.513364
8.08341
0.123907
-1.68313
0.0243785
4.82234
6.8455
4.70206
-16.4021
4.31361
6.75249
-1.87329
-18.5299
-8.47081
-12.0547
-6.88607
0.036002
-10.3833
-3.88928
-79.8543
-1.21955
-24.0496
-6.771
-89.0264
-51.4831
-85.9381
-140.986
-145.349
-61.7774
-94.0496
-152.857
-159.045
-40.6014
-40.842
-60.1825
-51.6432
-44.5857
-43.6821
-65.5315
-55.2674
-41.5497
-14.8033
-8.98664
-143.246
-8.78887
-140.402
-14.5005
-143.397
-15.5233
-143.11
-205.094
-176.347
-207.322
-182.826
-216.447
-195.655
-219.602
-202.268
-75.5361
-62.5132
-76.0942
-62.8908
-82.823
-67.5277
-83.4059
-67.9135
-60.4901
-17.9339
-3.55632
-75.7241
0.658478
-8.66487
-8.04622
-86.2139
-0.416588
-18.8719
-150.621
-166.935
-69.7008
-110.527
-162.283
-180.228
-77.4594
-117.769
-61.9498
-52.2751
-40.5093
-40.0512
-67.2393
-55.9407
-44.3734
-43.0643
-37.6791
-9.18532
0.288973
-7.0601
-16.9458
49.1859
64.755
-12.9991
-20.1947
40.3202
60.31
2.20623
5.33225
28.9093
22.6263
-0.735847
3.30652
24.4575
19.9752
13.3393
8.30758
3.10703
60.2335
16.0762
123.851
3.14093
59.0437
15.34
116.546
131.959
152.517
198.031
196.413
117.66
145.512
180.665
188.006
70.4662
64.9466
86.4024
73.8303
64.4129
61.6329
79.4445
69.995
57.3222
22.9588
16.4961
124.777
2.93955
68.114
14.6012
116.733
3.91358
63.2993
196.395
187.613
128.878
133.517
179.39
178.575
116.986
125.531
85.5774
72.6365
71.8774
65.912
78.7469
68.8057
66.3732
62.7092
57.9207
24.0038
0.0913573
41.3905
45.6926
-13.9845
-4.11437
41.3155
40.8862
-7.38136
-5.70089
14.3603
21.8663
12.973
0.102674
-1.05718
-13.374
0.298735
2.85306
0.00732209
-0.196438
7.9537
1.25263
-1.31643
-0.020949
1.41308
8.41197
-0.388286
-11.0245
1.93191
8.99536
2.73209
-2.23914
-1.59748
-8.83584
-6.52925
-0.774689
-14.6699
-6.06102
-69.6729
-0.506158
-2.85172
-1.31361
-33.739
-46.3286
-75.3555
-123.185
-133.53
-17.7942
-42.9045
-68.8342
-84.8678
-38.0789
-38.4985
-56.9645
-49.2812
-29.1069
-33.5949
-43.8945
-42.5552
-33.8153
-14.4407
-12.7758
-111.169
-13.7237
-111.856
-3.01951
-56.8633
-3.342
-53.9916
-177.485
-168.772
-179.837
-174.149
-106.198
-113.245
-106.522
-116.263
-73.4983
-61.9242
-73.9998
-62.3396
-57.9036
-54.3149
-58.1955
-54.6396
-50.7244
-18.0813
-7.17517
-66.0459
-1.29111
-6.29698
-2.06652
-26.5411
-1.54551
3.77645
-129.097
-151.122
-55.2432
-97.7792
-69.5556
-95.0956
-19.2979
-57.642
-58.738
-50.6434
-39.2264
-39.7273
-45.4128
-44.0559
-30.5618
-35.2843
-33.0399
-11.0958
0.0212767
-6.81658
-21.9214
24.0075
40.5274
0.616197
-15.5692
1.79183
20.3841
-3.59375
-1.35757
14.9924
11.7078
-2.97141
-1.63038
8.95098
8.47167
3.18217
2.89491
2.35191
45.7018
10.4856
90.7994
0.202578
14.584
2.18339
43.6716
81.8082
114.464
136.303
155.398
32.4392
67.1614
73.8974
98.2857
48.2908
47.4476
61.0461
54.4541
34.9945
40.0392
44.8726
45.6925
31.783
14.2133
10.3789
91.6414
1.73216
48.4281
1.88114
42.8759
0.214378
11.8116
135.886
149.607
84.1177
102.248
73.632
95.7643
35.0229
61.33
61.2163
54.4192
51.1239
49.3662
45.2613
45.8091
38.0647
42.0871
32.5181
15.4232
0.0587773
28.4728
28.0904
-6.84677
-8.42803
9.06524
12.9882
-0.493233
-7.15529
0.474846
10.2385
7.8452
0.128001
-0.235354
-16.3717
-3.91528
0.508599
0.00132166
-0.148344
1.65027
1.35604
-0.257774
0.00415008
0.0680167
8.50989
-1.256
-2.90446
-0.00285432
4.08019
-7.4061
-19.6655
-23.2029
2.84793
3.82602
2.66689
3.23257
1.15565
-9.98687
-7.10705
0.112909
-35.3546
-38.2957
-35.6063
-38.1615
5.71365
1.37164
5.99828
2.97836
-10.4409
-17.4272
-9.47761
0.0415821
-20.0898
-23.0986
3.09181
-7.29711
1.42834
8.34281
0.240676
10.0545
-5.87188
-12.4292
-6.51161
0.021431
0.707453
-2.62198
-1.19652
0.0517415
0.0227431
0.424177
13.2217
26.1556
24.1817
-1.33428
-5.66235
0.228154
-6.11485
-1.53985
7.06347
5.33689
0.0577902
26.231
24.2781
3.72525
12.7424
-3.98618
-6.30536
1.00545
-4.94759
-3.78238
6.78488
5.87027
0.0628035
-0.0499882
-11.3664
-0.803398
2.1184
0.0333294
2.38632
-13.6702
-6.57461
-1.81931
-0.00139429
-0.161784
3.01977
1.82045
0.766178
0.00413179
-0.437991
2.07988
2.54334
0.240383
0.000364331
-0.751635
12.351
2.18057
-1.12654
0.00205251
0.119204
8.80807
-1.63421
-2.7065
-0.0157702
1.22976
1.80536
-3.14704
-2.50604
0.0586028
-0.526865
0.80169
-0.936888
-0.458198
0.0463856
-0.194183
-4.03481
0.54966
1.33294
0.0416992
0.511591
-7.60126
-0.38339
1.31126
0.0254706
1.39247
-6.50976
-2.7436
-0.387142
-0.00342101
1.47269
-3.21483
-4.25208
-2.14183
SCALARS m0 double 1
LOOKUP_TABLE table1
0
0
0
0
0
0
0
0
0
0
0
0
0
0
0
0
0
0
0
0
0
0
0
0
0
0
0
0
0
0
0
0
0
0
0
0
0
0
0
0
0
0
0
0
0
0
0
0
0
0
0
0
0
0
0
0
0
0
0
0
0
0
0
0
0
0
0
0
0
0
0
0
0
0
0
0
0
0
0
0
0
0
0
0
0
0
0
0
0
0
0
0
0
0
0
0
0
0
0
0
0
0
0
0
0
0
0
0
0
0
0
0
0
0
0
0
0
0
0
0
0
0
0
0
0
0
0
0
0
0
0
0
0
0
0
0
0
0
0
0
0
0
0
0
0
0
0
0
0
0
0
0
0
0
0
0
0
0
0
0
0
0
0
0
0
0
0
0
0
0
0
0
0
0
0
0
0
0
0
0
0
0
0
0
0
0
0
0
0
0
0
0
0
0
0
0
0
0
0
0
0
0
0
0
0
0
0
0
0
0
0
0
0
0
0
0
0
0
0
0
0
0
0
0
0
0
0
0
0
0
0
0
0
0
0
0
0
0
0
0
0
0
0
0
0
0
0
0
0
0
0
0
0
0
0
0
0
0
0
0
0
0
0
0
0
0
0
0
0
0
0
0
0
0
0
0
0
0
0
0
0
0
0
0
0
0
0
0
0
0
0
0
0
0
0
0
0
0
0
0
0
0
0
0
0
0
0
0
0
0
0
0
0
0
0
0
0
0
0
0
0
0
0
0
0
0
0
0
0
0
0
0
0
0
0
0
0
0
0
0
0
0
0
0
0
0
0
0
0
0
0
0
0
0
0
0
0
0
0
0
0
0
0
0
0
0
0
0
0
0
0
0
0
0
0
0
0
0
0
0
0
0
0
0
0
0
0
0
0
0
0
0
0
0
0
0
0
0
0
0
0
0
0
0
0
0
0
0
0
0
0
0
0
0
0
0
0
0
0
0
0
0
0
0
0
0
0
0
0
0
0
0
0
0
0
0
0
0
0
0
0
0
0
0
0
0
0
0
0
0
0
0
0
0
0
0
0
0
0
0
0
0
0
0
0
0
0
0
0
0
0
0
0
0
0
0
0
0
0
0
0
0
0
0
0
0
0
0
0
0
0
0
0
0
0
0
0
0
0
0
0
0
0
0
0
0
0
0
0
0
0
0
0
0
0
0
0
0
0
0
0
0
0
0
0
0
0
0
0
0
0
0
0
0
0
0
0
0
0
0
0
0
0
0
0
0
0
0
0
0
0
0
0
0
0
0
0
0
0
0
0
0
0
0
0
0
0
0
0
0
0
0
0
0
0
0
0
0
0
0
0
0
0
0
0
0
0
0
0
0
0
0
0
0
0
0
0
0
0
0
0
0
0
0
0
0
0
0
0
0
0
0
0
0
0
0
0
0
0
0
0
0
0
0
0
0
0
0
0
0
0
0
0
0
0
0
0
0
0
0
0
0
0
0
0
0
0
0
0
0
0
0
0
0
0
0
0
0
0
0
0
0
0
0
0
0
0
0
0
0
0
0
0
0
0
0
0
0
0
0
0
0
0
0
0
0
0
0
0
0
0
0
0
0
0
0
0
0
0
0
0
0
0
0
0
0
0
0
0
0
0
0
0
0
0
0
0
0
0
0
0
0
0
0
0
0
0
0
0
0
0
0
0
0
0
0
0
0
0
0
0
0
0
0
0
0
0
0
0
0
0
0
0
0
0
0
0
0
0
0
0
0
0
0
0
0
0
0
0
0
0
0
0
0
0
0
0
0
0
0
0
0
0
0
0
0
0
0
0
0
0
0
0
0
0
0
0
0
0
0
0
0
0
0
0
0
0
0
0
0
0
0
0
0
0
0
0
0
0
0
0
0
0
0
0
0
0
0
0
0
0
0
0
0
0
0
0
0
0
0
0
0
0
0
0
0
0
0
0
0
0
0
0
0
0
0
0
0
0
0
0
0
0
0
0
0
0
0
0
0
0
0
0
0
0
0
0
0
0
0
0
0
0
0
0
0
0
0
0
0
0
0
0
0
0
0
0
0
0
0
0
0
0
0
0
0
0
0
0
0
0
0
0
0
0
0
0
0
0
0
0
0
0
0
0
0
0
0
0
0
0
0
0
0
0
0
0
0
0
0
0
0
0
0
0
0
0
0
0
0
0
0
0
0
0
0
0
0
0
0
0
0
0
0
0
0
0
0
0
0
0
0
0
0
0
0
0
0
0
0
0
0
0
0
0
0
0
0
0
0
0
0
0
0
0
0
0
0
0
0
0
0
0
0
0
0
0
0
0
0
0
0
0
0
0
0
0
0
0
0
0
0
0
0
0
0
0
0
0
0
0
0
0
0
0
0
0
0
0
0
0
0
0
0
0
0
0
0
0
0
0
0
0
0
0
0
0
0
0
0
0
0
0
0
0
0
0
0
0
0
0
0
0
0
0
0
0
0
0
0
0
0
0
0
0
0
0
0
0
0
0
0
0
0
0
0
0
0
0
0
0
0
0
0
0
0
0
0
0
0
0
0
0
0
0
0
0
0
0
0
0
0
0
0
0
0
0
0
0
0
0
0
0
0
0
0
0
0
0
0
0
0
0
0
0
0
0
0
0
0
0
0
0
0
0
0
0
0
0
0
0
0
0
0
0
0
0
0
0
0
0
0
0
0
0
0
0
0
0
0
0
0
0
0
0
0
0
0
0
0
0
0
0
0
0
0
0
0
0
0
SCALARS m0s double 1
LOOKUP_TABLE table2
0
0
0
0
0
0
0
0
0
0
0
0
0
0
0
0
0
0
0
0
0
0
0
0
0
0
0
0
0
0
0
0
0
0
0
0
0
0
0
0
0
0
0
0
0
0
0
0
0
0
0
0
0
0
0
0
0
0
0
0
0
0
0
0
0
0
0
0
0
0
0
0
0
0
0
0
0
0
0
0
0
0
0
0
0
0
0
0
0
0
0
0
0
0
0
0
0
0
0
0
0
0
0
0
0
0
0
0
0
0
0
0
0
0
0
0
0
0
0
0
0
0
0
0
0
0
0
0
0
0
0
0
0
0
0
0
0
0
0
0
0
0
0
0
0
0
0
0
0
0
0
0
0
0
0
0
0
0
0
0
0
0
0
0
0
0
0
0
0
0
0
0
0
0
0
0
0
0
0
0
0
0
0
0
0
0
0
0
0
0
0
0
0
0
0
0
0
0
0
0
0
0
0
0
0
0
0
0
0
0
0
0
0
0
0
0
0
0
0
0
0
0
0
0
0
0
0
0
0
0
0
0
0
0
0
0
0
0
0
0
0
0
0
0
0
0
0
0
0
0
0
0
0
0
0
0
0
0
0
0
0
0
0
0
0
0
0
0
0
0
0
0
0
0
0
0
0
0
0
0
0
0
0
0
0
0
0
0
0
0
0
0
0
0
0
0
0
0
0
0
0
0
0
0
0
0
0
0
0
0
0
0
0
0
0
0
0
0
0
0
0
0
0
0
0
0
0
0
0
0
0
0
0
0
0
0
0
0
0
0
0
0
0
0
0
0
0
0
0
0
0
0
0
0
0
0
0
0
0
0
0
0
0
0
0
0
0
0
0
0
0
0
0
0
0
0
0
0
0
0
0
0
0
0
0
0
0
0
0
0
0
0
0
0
0
0
0
0
0
0
0
0
0
0
0
0
0
0
0
0
0
0
0
0
0
0
0
0
0
0
0
0
0
0
0
0
0
0
0
0
0
0
0
0
0
0
0
0
0
0
0
0
0
0
0
0
0
0
0
0
0
0
0
0
0
0
0
0
0
0
0
0
0
0
0
0
0
0
0
0
0
0
0
0
0
0
0
0
0
0
0
0
0
0
0
0
0
0
0
0
0
0
0
0
0
0
0
0
0
0
0
0
0
0
0
0
0
0
0
0
0
0
0
0
0
0
0
0
0
0
0
0
0
0
0
0
0
0
0
0
0
0
0
0
0
0
0
0
0
0
0
0
0
0
0
0
0
0
0
0
0
0
0
0
0
0
0
0
0
0
0
0
0
0
0
0
0
0
0
0
0
0
0
0
0
0
0
0
0
0
0
0
0
0
0
0
0
0
0
0
0
0
0
0
0
0
0
0
0
0
0
0
0
0
0
0
0
0
0
0
0
0
0
0
0
0
0
0
0
0
0
0
0
0
0
0
0
0
0
0
0
0
0
0
0
0
0
0
0
0
0
0
0
0
0
0
0
0
0
0
0
0
0
0
0
0
0
0
0
0
0
0
0
0
0
0
0
0
0
0
0
0
0
0
0
0
0
0
0
0
0
0
0
0
0
0
0
0
0
0
0
0
0
0
0
0
0
0
0
0
0
0
0
0
0
0
0
0
0
0
0
0
0
0
0
0
0
0
0
0
0
0
0
0
0
0
0
0
0
0
0
0
0
0
0
0
0
0
0
0
0
0
0
0
0
0
0
0
0
0
0
0
0
0
0
0
0
0
0
0
0
0
0
0
0
0
0
0
0
0
0
0
0
0
0
0
0
0
0
0
0
0
0
0
0
0
0
0
0
0
0
0
0
0
0
0
0
0
0
0
0
0
0
0
0
0
0
0
0
0
0
0
0
0
0
0
0
0
0
0
0
0
0
0
0
0
0
0
0
0
0
0
0
0
0
0
0
0
0
0
0
0
0
0
0
0
0
0
0
0
0
0
0
0
0
0
0
0
0
0
0
0
0
0
0
0
0
0
0
0
0
0
0
0
0
0
0
0
0
0
0
0
0
0
0
0
0
0
0
0
0
0
0
0
0
0
0
0
0
0
0
0
0
0
0
0
0
0
0
0
0
0
0
0
0
0
0
0
0
0
0
0
0
0
0
0
0
0
0
0
0
0
0
0
0
0
0
0
0
0
0
0
0
0
0
0
0
0
0
0
0
0
0
0
0
0
0
0
0
0
0
0
0
0
0
0
0
0
0
0
0
0
0
0
0
0
0
0
0
0
0
0
0
0
0
0
0
0
0
0
0
0
0
0
0
0
0
0
0
0
0
0
0
0
0
0
0
0
0
0
0
0
0
0
0
0
0
0
0
0
0
0
0
0
0
0
0
0
0
0
0
0
0
0
0
0
0
0
0
0
0
0
0
0
0
0
0
0
0
0
0
0
0
0
0
0
0
0
0
0
0
0
0
0
0
0
0
0
0
0
0
0
0
0
0
0
0
0
0
0
0
0
0
0
0
0
0
0
0
0
0
0
0
0
0
0
0
0
0
0
0
0
0
0
0
0
0
0
0
0
0
0
0
0
0
0
0
0
0
0
0
0
0
0
0
0
0
0
0
0
0
0
0
0
0
0
0
0
0
0
0
0
0
0
0
0
0
0
0
0
0
0
0
0
0
0
0
0
0
0
0
0
0
0
0
0
0
0
0
0
0
0
0
0
0
0
0
0
0
0
0
0
0
0
0
0
0
0
0
0
0
0
0
0
0
0
0
0
0
0

POINT_DATA	1200
SCALARS model double 1
LOOKUP_TABLE table0
0.023363
-0.0305034
-2.68487
-2.5781
-1.53506
0.022232
1.02777
-4.8098
-3.8043
-1.62447
0.0257089
1.43268
-9.20116
-5.51431
-1.65484
0.000704975
1.62941
-15.1887
-7.10568
-1.74538
0.0223023
1.59073
-11.5609
-6.61691
-1.72204
0.0707246
-0.779604
-7.65083
-4.69918
-1.35621
0.0715081
-0.188707
-3.93221
-2.3134
-0.756533
0.0762083
-1.23196
-2.12483
-0.974462
-0.505644
0.0740611
-0.540877
-0.256052
-1.26477
-1.06897
-0.00309153
0.479814
-0.420657
-2.63439
-2.0874
-0.00362119
1.01157
-2.29239
-2.23797
-0.631737
0.0668943
-0.964026
-6.88325
-0.659146
1.27342
0.0833951
-3.48226
-5.28508
3.46946
4.01274
0.078368
-0.607919
-4.72118
0.48929
-6.56207
-14.325
1.28744
-11.3597
-0.682562
-3.59039
6.19698
5.61003
0.0940255
-0.874187
-10.2537
1.18211
-9.53999
-10.4607
-8.80825
-8.71583
-12.1204
-7.98327
3.61465
4.73269
0.0321871
-0.963921
-5.90628
0.531736
2.89034
0.0859157
-2.86449
-1.81764
-0.113739
1.65533
-0.00695464
-0.274228
-2.46406
-0.627801
0.632321
-0.00790173
0.465922
-3.06328
-2.45114
-1.07413
-0.0582999
1.41802
-5.85595
-5.36459
-3.06313
-0.00454322
1.02636
-11.9794
-3.26087
0.21752
0.0475785
-2.89021
-3.81536
5.05469
4.8987
0.218223
-10.3347
-2.63672
11.7373
21.4902
28.2379
32.3688
85.298
73.0601
33.8494
23.2604
11.854
-0.433797
-3.82242
-0.323246
-1.83024
-0.426212
70.8194
-0.673267
67.045
23.1062
42.2471
25.619
43.7375
115.887
106.536
117.813
108.135
28.5919
29.7024
29.697
30.9503
50.2792
41.6904
50.5946
42.6337
35.7438
16.031
0.125441
15.0465
23.0514
-14.5341
2.45553
89.6453
76.219
27.6368
35.4591
33.3429
24.7654
13.6646
0.0263708
-7.37453
-3.21747
8.55856
8.71989
0.00646293
-3.83225
-4.40909
3.0942
5.59543
0.00623342
-2.89453
-4.29811
1.35239
3.36412
0.0282297
-1.30987
-4.73732
-2.36001
0.0965055
-0.117752
3.31715
-9.27346
-7.33071
-3.3089
0.0108001
0.347429
-10.9459
-2.24953
0.879639
0.0546136
1.13865
-4.79435
-14.8222
12.9747
-1.08527
-5.9998
-1.1192
17.2494
3.8946
10.0923
6.78896
-1.47385
19.5
3.13888
98.9133
-0.418103
24.5914
5.69388
99.7352
46.2414
73.9731
136.433
134.441
55.3402
90.8859
149.715
157.188
38.7683
39.4972
59.6523
51.0765
41.7583
41.7389
63.5841
53.7055
39.9713
16.0892
7.95479
129.674
8.76452
129.342
14.4642
150.95
14.5482
150.133
187.886
170.715
188.09
169.463
210.344
193.234
208.918
189.713
75.3777
63.2297
75.6052
63.2513
81.0824
66.0237
81.022
65.8774
60.1616
21.9312
2.72006
96.5083
-0.166653
15.7329
6.09599
97.6066
0.101752
22.6125
137.018
129.582
47.9573
66.5667
146.168
145.753
51.3424
77.0977
59.6644
50.1476
40.6546
40.888
62.7922
52.4211
42.2493
42.555
42.5277
19.3795
0.0245567
-7.53115
0.973404
-1.69989
-21.4047
-8.45035
5.49148
-11.2848
-15.159
-3.81583
17.9253
14.2628
-0.00468576
-5.05264
-15.5906
-10.1931
-12.6346
1.62828
1.02757
21.1517
16.6567
4.94011
13.6544
11.9645
-0.0201686
-8.24614
-10.4879
-0.681307
-9.95851
24.1701
20.9804
4.66343
8.85712
8.93538
11.645
9.2871
0.0346642
-0.709845
-13.673
-1.84588
-10.0173
-5.02929
-10.1876
4.48803
-10.3165
-6.26288
1.64827
3.53206
0.0404262
0.830257
-12.7587
-6.96597
-2.02045
-0.000130244
0.152628
-4.95381
-0.936609
0.514057
0.0367652
-1.09859
-7.72254
0.917241
13.207
-1.35852
-3.64501
-4.36407
6.48923
3.68742
6.37391
4.00338
-0.908332
20.0861
3.80116
81.8109
-0.647663
2.05952
-2.6907
39.9059
44.3044
78.9971
125.067
139.49
18.9151
45.0314
68.8385
84.6806
34.3403
33.4923
52.6033
43.1503
22.2488
25.4014
34.399
32.2853
25.591
9.84453
7.97973
129.077
7.85341
128.727
-4.25158
85.8558
-4.20941
89.8557
181.228
173.987
179.678
169.202
108.609
111.575
108.877
106.732
67.8463
53.3011
67.6537
53.0769
44.7683
39.8446
44.5459
39.5463
39.0195
14.2042
3.25471
80.5849
-0.793379
25.08
-3.58117
43.6447
-1.34633
8.1188
120.693
124.708
39.9081
65.46
64.9801
68.2928
11.2655
28.598
51.3453
41.7892
34.0787
34.2383
32.87
30.7936
21.7471
26.1447
29.5586
14.9347
-0.0268164
-6.26043
13.7735
-0.482569
12.1288
-12.1007
8.33291
15.4761
31.264
10.536
24.3851
16.6244
-0.859458
21.4168
1.08551
46.7808
1.84101
51.73
10.316
95.1521
33.8985
50.7814
69.8625
81.5975
78.3122
91.7702
131.708
133.139
32.262
35.1075
42.1949
40.7166
47.3895
44.6921
59.1404
51.1539
38.1426
20.1771
0.664727
47.1672
0.377591
13.3981
9.92141
93.8381
2.1008
47.4073
70.1656
87.1598
32.1565
58.3108
131.267
137.993
79.4041
98.3861
43.46
41.7267
36.187
38.2947
59.9878
51.8615
49.9686
47.0894
36.7103
18.2978
0.0047975
1.74947
10.9676
-2.39262
-6.85988
24.5341
29.8854
-3.73369
-4.8357
3.04168
12.3867
9.0859
0.0479357
-1.33506
-14.503
-3.434
0.673186
0.00901656
-0.515299
4.30511
-0.398791
-0.795574
0.0140883
6.16462
1.07099
2.7163
-3.10437
-1.23115
6.09409
6.82798
-7.90593
-2.67891
-4.5688
-2.26496
-0.746383
3.42458
-2.32159
9.51912
-0.529895
3.10581
-1.11595
-30.9534
-2.90091
-10.1972
-4.14617
-9.32527
-26.225
-51.6613
-85.0143
-86.8048
-5.2325
-7.21072