# vtk DataFile Version 3.0
Gravity inversion using rectangular prisms
ASCII
DATASET UNSTRUCTURED_GRID

POINTS	3476	double
-1087.5	-1087.5	100
-1087.5	-1087.5	300
-1087.5	-1087.5	500
-1087.5	-1087.5	700
-1087.5	-1087.5	900
-1087.5	-1087.5	1150
-1087.5	-1087.5	1525
-1087.5	-1087.5	2087.5
-1087.5	-525	100
-1087.5	-525	300
-1087.5	-525	500
-1087.5	-525	700
-1087.5	-525	900
-1087.5	-525	1150
-1087.5	-525	1525
-1087.5	-525	2087.5
-1087.5	-150	100
-1087.5	-150	300
-1087.5	-150	500
-1087.5	-150	700
-1087.5	-150	900
-1087.5	-150	1150
-1087.5	-150	1525
-1087.5	-150	2087.5
-1087.5	100	100
-1087.5	100	300
-1087.5	100	500
-1087.5	100	700
-1087.5	100	900
-1087.5	100	1150
-1087.5	100	1525
-1087.5	100	2087.5
-1087.5	300	100
-1087.5	300	300
-1087.5	300	500
-1087.5	300	700
-1087.5	300	900
-1087.5	300	1150
-1087.5	300	1525
-1087.5	300	2087.5
-1087.5	500	100
-1087.5	500	300
-1087.5	500	500
-1087.5	500	700
-1087.5	500	900
-1087.5	500	1150
-1087.5	500	1525
-1087.5	500	2087.5
-1087.5	700	100
-1087.5	700	300
-1087.5	700	500
-1087.5	700	700
-1087.5	700	900
-1087.5	700	1150
-1087.5	700	1525
-1087.5	700	2087.5
-1087.5	900	100
-1087.5	900	300
-1087.5	900	500
-1087.5	900	700
-1087.5	900	900
-1087.5	900	1150
-1087.5	900	1525
-1087.5	900	2087.5
-1087.5	1100	100
-1087.5	1100	300
-1087.5	1100	500
-1087.5	1100	700
-1087.5	1100	900
-1087.5	1100	1150
-1087.5	1100	1525
-1087.5	1100	2087.5
-1087.5	1300	100
-1087.5	1300	300
-1087.5	1300	500
-1087.5	1300	700
-1087.5	1300	900
-1087.5	1300	1150
-1087.5	1300	1525
-1087.5	1300	2087.5
-1087.5	1500	100
-1087.5	1500	300
-1087.5	1500	500
-1087.5	1500	700
-1087.5	1500	900
-1087.5	1500	1150
-1087.5	1500	1525
-1087.5	1500	2087.5
-1087.5	1700	100
-1087.5	1700	300
-1087.5	1700	500
-1087.5	1700	700
-1087.5	1700	900
-1087.5	1700	1150
-1087.5	1700	1525
-1087.5	1700	2087.5
-1087.5	1900	100
-1087.5	1900	300
-1087.5	1900	500
-1087.5	1900	700
-1087.5	1900	900
-1087.5	1900	1150
-1087.5	1900	1525
-1087.5	1900	2087.5
-1087.5	2150	100
-1087.5	2150	300
-1087.5	2150	500
-1087.5	2150	700
-1087.5	2150	900
-1087.5	2150	1150
-1087.5	2150	1525
-1087.5	2150	2087.5
-1087.5	2525	100
-1087.5	2525	300
-1087.5	2525	500
-1087.5	2525	700
-1087.5	2525	900
-1087.5	2525	1150
-1087.5	2525	1525
-1087.5	2525	2087.5
-1087.5	3087.5	100
-1087.5	3087.5	300
-1087.5	3087.5	500
-1087.5	3087.5	700
-1087.5	3087.5	900
-1087.5	3087.5	1150
-1087.5	3087.5	1525
-1087.5	3087.5	2087.5
-525	-1087.5	100
-525	-1087.5	300
-525	-1087.5	500
-525	-1087.5	700
-525	-1087.5	900
-525	-1087.5	1150
-525	-1087.5	1525
-525	-1087.5	2087.5
-525	-525	100
-525	-525	300
-525	-525	500
-525	-525	700
-525	-525	900
-525	-525	1150
-525	-525	1525
-525	-525	2087.5
-525	-150	100
-525	-150	300
-525	-150	500
-525	-150	700
-525	-150	900
-525	-150	1150
-525	-150	1525
-525	-150	2087.5
-525	100	100
-525	100	300
-525	100	500
-525	100	700
-525	100	900
-525	100	1150
-525	100	1525
-525	100	2087.5
-525	300	100
-525	300	300
-525	300	500
-525	300	700
-525	300	900
-525	300	1150
-525	300	1525
-525	300	2087.5
-525	500	100
-525	500	300
-525	500	500
-525	500	700
-525	500	900
-525	500	1150
-525	500	1525
-525	500	2087.5
-525	700	100
-525	700	300
-525	700	500
-525	700	700
-525	700	900
-525	700	1150
-525	700	1525
-525	700	2087.5
-525	900	100
-525	900	300
-525	900	500
-525	900	700
-525	900	900
-525	900	1150
-525	900	1525
-525	900	2087.5
-525	1100	100
-525	1100	300
-525	1100	500
-525	1100	700
-525	1100	900
-525	1100	1150
-525	1100	1525
-525	1100	2087.5
-525	1300	100
-525	1300	300
-525	1300	500
-525	1300	700
-525	1300	900
-525	1300	1150
-525	1300	1525
-525	1300	2087.5
-525	1500	100
-525	1500	300
-525	1500	500
-525	1500	700
-525	1500	900
-525	1500	1150
-525	1500	1525
-525	1500	2087.5
-525	1700	100
-525	1700	300
-525	1700	500
-525	1700	700
-525	1700	900
-525	1700	1150
-525	1700	1525
-525	1700	2087.5
-525	1900	100
-525	1900	300
-525	1900	500
-525	1900	700
-525	1900	900
-525	1900	1150
-525	1900	1525
-525	1900	2087.5
-525	2150	100
-525	2150	300
-525	2150	500
-525	2150	700
-525	2150	900
-525	2150	1150
-525	2150	1525
-525	2150	2087.5
-525	2525	100
-525	2525	300
-525	2525	500
-525	2525	700
-525	2525	900
-525	2525	1150
-525	2525	1525
-525	2525	2087.5
-525	3087.5	100
-525	3087.5	300
-525	3087.5	500
-525	3087.5	700
-525	3087.5	900
-525	3087.5	1150
-525	3087.5	1525
-525	3087.5	2087.5
-150	-1087.5	100
-150	-1087.5	300
-150	-1087.5	500
-150	-1087.5	700
-150	-1087.5	900
-150	-1087.5	1150
-150	-1087.5	1525
-150	-1087.5	2087.5
-150	-525	100
-150	-525	300
-150	-525	500
-150	-525	700
-150	-525	900
-150	-525	1150
-150	-525	1525
-150	-525	2087.5
-150	-150	100
-150	-150	300
-150	-150	500
-150	-150	700
-150	-150	900
-150	-150	1150
-150	-150	1525
-150	-150	2087.5
-150	100	100
-150	100	300
-150	100	500
-150	100	700
-150	100	900
-150	100	1150
-150	100	1525
-150	100	2087.5
-150	300	100
-150	300	300
-150	300	500
-150	300	700
-150	300	900
-150	300	1150
-150	300	1525
-150	300	2087.5
-150	500	100
-150	500	300
-150	500	500
-150	500	700
-150	500	900
-150	500	1150
-150	500	1525
-150	500	2087.5
-150	700	100
-150	700	300
-150	700	500
-150	700	700
-150	700	900
-150	700	1150
-150	700	1525
-150	700	2087.5
-150	900	100
-150	900	300
-150	900	500
-150	900	700
-150	900	900
-150	900	1150
-150	900	1525
-150	900	2087.5
-150	1100	100
-150	1100	300
-150	1100	500
-150	1100	700
-150	1100	900
-150	1100	1150
-150	1100	1525
-150	1100	2087.5
-150	1300	100
-150	1300	300
-150	1300	500
-150	1300	700
-150	1300	900
-150	1300	1150
-150	1300	1525
-150	1300	2087.5
-150	1500	100
-150	1500	300
-150	1500	500
-150	1500	700
-150	1500	900
-150	1500	1150
-150	1500	1525
-150	1500	2087.5
-150	1700	100
-150	1700	300
-150	1700	500
-150	1700	700
-150	1700	900
-150	1700	1150
-150	1700	1525
-150	1700	2087.5
-150	1900	100
-150	1900	300
-150	1900	500
-150	1900	700
-150	1900	900
-150	1900	1150
-150	1900	1525
-150	1900	2087.5
-150	2150	100
-150	2150	300
-150	2150	500
-150	2150	700
-150	2150	900
-150	2150	1150
-150	2150	1525
-150	2150	2087.5
-150	2525	100
-150	2525	300
-150	2525	500
-150	2525	700
-150	2525	900
-150	2525	1150
-150	2525	1525
-150	2525	2087.5
-150	3087.5	100
-150	3087.5	300
-150	3087.5	500
-150	3087.5	700
-150	3087.5	900
-150	3087.5	1150
-150	3087.5	1525
-150	3087.5	2087.5
100	-1087.5	100
100	-1087.5	300
100	-1087.5	500
100	-1087.5	700
100	-1087.5	900
100	-1087.5	1150
100	-1087.5	1525
100	-1087.5	2087.5
100	-525	100
100	-525	300
100	-525	500
100	-525	700
100	-525	900
100	-525	1150
100	-525	1525
100	-525	2087.5
100	-150	100
100	-150	300
100	-150	500
100	-150	700
100	-150	900
100	-150	1150
100	-150	1525
100	-150	2087.5
100	100	100
100	100	300
100	100	500
100	100	700
100	100	900
100	100	1150
100	100	1525
100	100	2087.5
100	300	100
100	300	300
100	300	500
100	300	700
100	300	900
100	300	1150
100	300	1525
100	300	2087.5
100	500	100
100	500	300
100	500	500
100	500	700
100	500	900
100	500	1150
100	500	1525
100	500	2087.5
100	700	100
100	700	300
100	700	500
100	700	700
100	700	900
100	700	1150
100	700	1525
100	700	2087.5
100	900	100
100	900	300
100	900	500
100	900	700
100	900	900
100	900	1150
100	900	1525
100	900	2087.5
100	1100	100
100	1100	300
100	1100	500
100	1100	700
100	1100	900
100	1100	1150
100	1100	1525
100	1100	2087.5
100	1300	100
100	1300	300
100	1300	500
100	1300	700
100	1300	900
100	1300	1150
100	1300	1525
100	1300	2087.5
100	1500	100
100	1500	300
100	1500	500
100	1500	700
100	1500	900
100	1500	1150
100	1500	1525
100	1500	2087.5
100	1700	100
100	1700	300
100	1700	500
100	1700	700
100	1700	900
100	1700	1150
100	1700	1525
100	1700	2087.5
100	1900	100
100	1900	300
100	1900	500
100	1900	700
100	1900	900
100	1900	1150
100	1900	1525
100	1900	2087.5
100	2150	100
100	2150	300
100	2150	500
100	2150	700
100	2150	900
100	2150	1150
100	2150	1525
100	2150	2087.5
100	2525	100
100	2525	300
100	2525	500
100	2525	700
100	2525	900
100	2525	1150
100	2525	1525
100	2525	2087.5
100	3087.5	100
100	3087.5	300
100	3087.5	500
100	3087.5	700
100	3087.5	900
100	3087.5	1150
100	3087.5	1525
100	3087.5	2087.5
300	-1087.5	100
300	-1087.5	300
300	-1087.5	500
300	-1087.5	700
300	-1087.5	900
300	-1087.5	1150
300	-1087.5	1525
300	-1087.5	2087.5
300	-525	100
300	-525	300
300	-525	500
300	-525	700
300	-525	900
300	-525	1150
300	-525	1525
300	-525	2087.5
300	-150	100
300	-150	300
300	-150	500
300	-150	700
300	-150	900
300	-150	1150
300	-150	1525
300	-150	2087.5
300	100	100
300	100	300
300	100	500
300	100	700
300	100	900
300	100	1150
300	100	1525
300	100	2087.5
300	300	100
300	300	300
300	300	500
300	300	700
300	300	900
300	300	1150
300	300	1525
300	300	2087.5
300	500	100
250	450	250
250	450	350
250	550	250
250	550	350
350	450	250
350	450	350
350	550	250
350	550	350
300	500	500
300	500	700
300	500	900
300	500	1150
300	500	1525
300	500	2087.5
250	650	50
250	650	150
250	750	50
250	750	150
350	650	50
350	650	150
350	750	50
350	750	150
250	650	250
250	650	350
250	750	250
250	750	350
350	650	250
350	650	350
350	750	250
350	750	350
250	650	450
250	650	550
250	750	450
250	750	550
350	650	450
350	650	550
350	750	450
350	750	550
300	700	700
300	700	900
300	700	1150
300	700	1525
300	700	2087.5
300	900	100
250	850	250
250	850	350
250	950	250
250	950	350
350	850	250
350	850	350
350	950	250
350	950	350
300	900	500
300	900	700
300	900	900
300	900	1150
300	900	1525
300	900	2087.5
300	1100	100
300	1100	300
300	1100	500
300	1100	700
300	1100	900
300	1100	1150
300	1100	1525
300	1100	2087.5
300	1300	100
300	1300	300
300	1300	500
300	1300	700
300	1300	900
300	1300	1150
300	1300	1525
300	1300	2087.5
300	1500	100
300	1500	300
300	1500	500
300	1500	700
300	1500	900
300	1500	1150
300	1500	1525
300	1500	2087.5
300	1700	100
300	1700	300
300	1700	500
300	1700	700
300	1700	900
300	1700	1150
300	1700	1525
300	1700	2087.5
300	1900	100
300	1900	300
300	1900	500
300	1900	700
300	1900	900
300	1900	1150
300	1900	1525
300	1900	2087.5
300	2150	100
300	2150	300
300	2150	500
300	2150	700
300	2150	900
300	2150	1150
300	2150	1525
300	2150	2087.5
300	2525	100
300	2525	300
300	2525	500
300	2525	700
300	2525	900
300	2525	1150
300	2525	1525
300	2525	2087.5
300	3087.5	100
300	3087.5	300
300	3087.5	500
300	3087.5	700
300	3087.5	900
300	3087.5	1150
[...]
CELL_DATA	3476
SCALARS model double 1
LOOKUP_TABLE table0
0.0179516
0.0758005
0.211131
0.374552
0.547617
1.02434
2.01403
3.53572
-0.0444731
-0.0604986
0.073746
0.2487
0.436953
0.940991
1.95451
3.40337
-0.121428
-0.218593
-0.0647798
0.108975
0.295913
0.755463
1.65464
2.85139
-0.120854
-0.308509
-0.123046
0.0349011
0.200756
0.583876
1.31343
2.2268
-0.127093
-0.364133
-0.174367
-0.00429696
0.189266
0.614758
1.41887
2.39407
-0.139134
-0.428776
-0.23679
-0.0442748
0.181382
0.654677
1.53863
2.57888
-0.164201
-0.509374
-0.29939
-0.0798318
0.174257
0.685966
1.63308
2.72742
-0.185021
-0.542247
-0.324168
-0.0920921
0.174904
0.70705
1.69188
2.82688
-0.193028
-0.513644
-0.297016
-0.0737005
0.184943
0.715422
1.70867
2.8695
-0.189356
-0.458101
-0.243078
-0.0406935
0.19533
0.705485
1.68103
2.85294
-0.17402
-0.402386
-0.195249
-0.0166276
0.193754
0.672316
1.61147
2.78063
-0.159779
-0.377673
-0.177013
-0.015094
0.174864
0.617339
1.50855
2.66164
-0.161901
-0.393972
-0.200022
-0.0350837
0.146231
0.558594
1.40631
2.54072
-0.199289
-0.431878
-0.290531
-0.0757119
0.163491
0.695125
1.823
3.40961
-0.123225
-0.283195
-0.218048
-0.0249129
0.237313
0.863221
2.24998
4.33068
-0.0707114
-0.143075
-0.034595
0.185148
0.441749
1.07756
2.53698
4.88452
-0.0167755
0.0160429
0.165695
0.317512
0.458951
0.877566
1.69546
2.89112
-0.33041
-0.287897
-0.0948844
0.147593
0.382858
0.940101
1.9291
3.11121
-1.02911
-0.872176
-0.553827
-0.135249
0.237938
0.877317
1.87619
2.83956
-1.04557
-1.4041
-0.781589
-0.241697
0.16971
0.774051
1.63037
2.32745
-0.946512
-1.43183
-0.878161
-0.315527
0.191791
0.925544
1.90702
2.62188
-0.708682
-1.31964
-1.10046
-0.451417
0.202454
1.08029
2.18788
2.91922
-0.684914
-2.40445
-1.75351
-0.671612
0.18586
1.19371
2.40936
3.1632
-0.819506
-2.78553
-1.9588
-0.735725
0.188493
1.25345
2.53854
3.32814
-1.03989
-2.29713
-1.57291
-0.581467
0.226361
1.2556
2.55958
3.39804
-1.21752
-1.93562
-1.1161
-0.378621
0.255631
1.19326
2.47392
3.36889
-1.18091
-1.42922
-0.761642
-0.259765
0.232075
1.06568
2.29785
3.24859
-1.04963
-1.36907
-0.711979
-0.284905
0.14538
0.888736
2.05919
3.05484
-0.952107
-1.47312
-0.940232
-0.426263
0.0244235
0.702778
1.8104
2.83547
-1.13329
-1.99736
-1.61766
-0.782419
-0.128825
0.729788
2.18638
3.69093
-0.450546
-1.06553
-1.13673
-0.682001
-0.123022
0.750401
2.40663
4.40844
-0.194363
-0.45555
-0.368513
-0.0890053
0.23097
0.916262
2.40777
4.5778
-0.0484722
-0.0179149
0.158788
0.270556
0.356267
0.657922
1.23409
2.07007
-0.955896
-0.527
-0.0654829
0.183466
0.371993
0.851035
1.62616
2.42886
-4.06374
-2.22157
-0.981212
-0.218485
0.291018
0.979232
1.81309
2.3783
-3.86874
-4.54792
-1.77425
-0.393444
0.310764
1.03257
1.7251
2.03211
-4.03786
-0.212057
-1.39016
-0.33348
0.537124
1.43493
2.17473
2.37936
-3.92817
0.484283
-1.90175
-0.338625
0.793691
1.86184
2.63097
2.72643
-2.9657
-8.82172
-4.52624
-0.641217
0.93487
2.17289
2.99442
3.01958
-2.85925
-8.76417
-4.51133
-0.669871
0.961815
2.28996
3.19837
3.22419
-4.34529
-4.16207
-2.76934
-0.411646
0.905697
2.21251
3.21785
3.31788
-5.47712
-4.32214
-1.67838
-0.22906
0.766477
1.9846
3.06778
3.29433
-5.9854
-0.626905
-0.906688
-0.229397
0.559184
1.66346
2.78775
3.1629
-5.60724
-2.88942
-1.10243
-0.385882
0.321111
1.30578
2.42826
2.94533
-4.70258
-2.66122
-1.73
-0.654149
0.0928008
0.970866
2.05552
2.68613
-4.37608
-5.46874
-3.61666
-1.27702
-0.145518
0.929988
2.36804
3.42757
-0.920556
-2.00212
-1.87699
-0.969215
-0.172324
0.805763
2.38233
3.92027
-0.275107
-0.633192
-0.459343
-0.149329
0.173388
0.812861
2.11024
3.81577
0.0011057
-0.0114168
0.154564
0.214012
0.25335
0.450977
0.835239
1.4068
-0.780138
-0.206605
0.223433
0.252837
0.32879
0.674887
1.2149
1.73285
-3.98058
-2.12251
-0.32346
-0.0574241
0.351211
0.927845
1.4949
1.77259
-2.82048
-5.28759
-2.13148
-0.267238
0.504154
1.12401
1.5173
1.55534
-2.60457
-4.72461
-2.60699
0.116495
1.04804
1.7412
2.02204
1.87302
-2.70391
-7.08718
-2.32914
0.926331
1.75227
2.42395
2.54481
2.19405
-1.84344
-15.7003
-3.12466
1.34323
2.21642
2.92382
2.97099
2.47391
-2.72041
-9.89444
-2.81826
1.24572
2.22505
3.07941
3.21549
2.67788
-4.30276
-4.64569
-1.93214
0.837535
1.8851
2.9089
3.24879
2.78186
-5.07599
-0.595851
-1.39811
0.355484
1.41728
2.53387
3.09158
2.77683
-4.87352
-4.97198
-2.17363
-0.121538
0.960916
2.06907
2.79072
2.66917
-4.90661
-3.16471
-1.89823
-0.370395
0.58532
1.5934
2.40262
2.47812
-4.84839
-4.18723
-1.73779
-0.491873
0.304975
1.16795
1.99434
2.23991
-4.28944
-8.32231
-3.24274
-0.898485
0.113969
1.11079
2.24742
2.83671
-0.959321
-2.11043
-1.56298
-0.678165
0.0136697
0.878959
2.14472
3.17442
-0.257763
-0.621816
-0.348655
-0.081177
0.185265
0.721803
1.74616
2.98062
0.0549599
0.0266782
0.181263
0.209656
0.225975
0.388545
0.738268
1.30405
-0.320915
0.561487
0.514195
0.30638
0.33215
0.66026
1.17907
1.68765
-4.01917
4.24731
0.262957
-0.0645748
0.452643
1.08297
1.59838
1.80536
-2.25139
-2.72373
-2.88349
-0.0741492
0.897063
1.50928
1.73536
1.63461
-1.84888
-12.8843
-3.20094
1.5397
2.13768
2.54624
2.41919
2.01291
-2.38555
-1.67485
-1.30775
-2.75146
-1.18315
-1.73962
-0.398444
-1.34229
0.268495
3.03249
4.70909
3.7957
3.73445
3.15218
2.40604
-1.64659
-9.29965
0.569404
-7.66466
-4.16638
-7.86545
-4.90659
-8.06606
-0.928978
2.44875
-0.226937
2.64064
3.19776
5.23722
3.64219
5.41131
7.37641
7.9318
7.4584
7.98822
8.3515
8.59302
8.44231
8.65821
6.69806
4.89606
4.62039
3.77436
2.76152
-4.49647
-2.05744
-0.725511
-2.00721
-0.774033
-0.449726
0.828509
-0.888651
0.394708
4.34396
5.87512
4.83074
4.90262
4.16033
3.03449
-5.49549
-10.0268
-0.41842
3.56627
3.96019
4.63619
4.26142
3.19058
-4.64658
-8.38414
-2.70146
1.70121
2.94487
4.05267
4.09559
3.21266
-4.44685
-10.4396
-4.05342
0.507032
2.05338
3.32541
3.71505
3.10335
-4.36662
-7.9858
-3.58051
-0.089003
1.3277
2.55963
3.19203
2.88381
-5.23919
-0.636951
-1.61282
-0.213644
0.796411
1.86034
2.62394
2.59848
-5.35926
-2.28733
-1.70589
-0.456338
0.538167
1.72732
2.88621
3.25516
-0.94969
-1.52735
-1.18258
-0.453762
0.249502
1.25791
2.61882
3.55914
-0.242201
-0.59317
-0.307583
-0.0323801
0.259589
0.863694
1.96728
3.2155
0.112301
0.0431798
0.173781
0.170218
0.162708
0.281308
0.597586
1.17411
0.210424
0.558801
0.387411
0.210727
0.243426
0.533627
1.03028
1.57061
-2.54216
1.03577
-1.91392
-0.469885
0.426167
1.07181
1.5362
1.74398
-0.844259
-17.5512
-5.33766
0.196718
1.25888
1.72861
1.78137
1.62441
-1.08948
-4.51107
-1.6381
-1.19932
0.22004
-4.31201
-1.30933
1.22813
1.44999
2.16089
4.35932
3.39056
3.16169
2.60136
2.04758
-0.88967
-4.20037
2.10016
4.9205
0.361295
10.6505
8.07029
28.2539
22.3878
28.4422
27.6306
31.3659
30.8725
32.6344
39.4008
36.8815
18.3081
18.2189
19.3174
18.8605
19.5052
18.9333
21.0434
19.8016
11.6241
6.27394
4.86895
3.52272
2.50332
3.1725
15.3287
1.4217
15.02
16.1882
51.0695
16.4476
52.0951
48.0659
53.044
48.3329
53.1395
64.7078
60.8021
64.737
60.7762
26.5325
25.5793
26.5974
25.6199
28.8
26.7563
28.8249
26.7867
16.0412
8.21589
6.21605
4.36024
2.93519
-0.681809
6.92285
-3.79718
-1.43135
7.17873
29.1996
-1.24251
9.40617
28.0918
31.1192
22.8146
28.2337
38.5962
36.1331
29.5979
31.8971
20.2133
19.7617
19.3045
19.2366
21.8637
20.6968
20.4462
19.9686
13.8718
8.18436
6.77866
4.95466
3.2891
-5.79326
-1.16173
0.40486
-3.97204
-1.2402
-0.213349
1.34542
-3.57372
-0.685877
8.86185
9.41631
8.31799
9.05899
9.40812
9.84366
8.65633
9.38436
8.83933
6.92391
6.62917
5.22159
3.51761
-6.27008
-9.63591
-7.2828
-9.01127
-7.20666
-7.90657
-6.72452
-6.70394
-6.53945
0.000345573
5.43369
5.52819
6.02586
5.14173
3.59009
-4.43314
-7.8231
-7.35523
-7.22527
-7.31264
-6.94155
-6.86518
-7.63318
-7.02489
-1.81598
3.31109
4.18427
5.10154
4.74049
3.49987
-4.07979
-14.4813
-3.81408
1.52504
2.83118
3.96771
4.09561
3.26671
-4.99395
-3.85587
-2.26477
0.528917
1.70209
2.84802
3.34823
2.94291
-6.81905
-2.39303
-1.69741
0.00162057
1.17199
2.5515
3.61404
3.66621
-1.01006
-1.70753
-1.17265
-0.282476
0.532514
1.7156
3.14493
3.94681
-0.255961
-0.631467
-0.300759
0.014006
0.344833
1.02782
2.21559
3.46991
0.153749
0.0541327
0.119333
0.0744769
0.0458025
0.10932
0.389957
0.988627
0.453002
1.2527
0.602087
0.114562
0.0504788
0.244711
0.722715
1.35146
-0.5379
-7.6848
-3.17264
-0.731751
0.19843
0.742317
1.21721
1.55487
-0.631494
-6.70204
-4.55457
-8.63022
-5.0001
-6.23396
-4.39327
-8.68125
-5.05811
-5.26712
0.363155
1.18054
1.4732
1.52879
1.49197
1.49085
-10.9837
-2.08025
0.328569
0.72703
-10.626
-1.32727
0.043987
6.71943
13.0338
15.9822
17.8643
7.83818
13.7032
17.4543
18.8119
11.7498
12.461
13.3506
13.4071
11.8157
12.5503
13.531
13.5402
6.2828
3.64466
2.96833
2.36271
1.93041
4.58397
27.9435
23.7231
69.0919
8.60356
35.6861
28.8688
82.7837
72.7993
77.9517
88.8448
85.3016
77.4686
80.2833
95.3028
88.169
33.061
31.2135
35.3057
32.3793
33.4499
31.3996
35.8561
32.6136
13.0799
12.6985
13.5395
12.9597
13.0926
12.6919
13.5649
12.9558
7.05562
4.8697
3.36961
2.42452
34.8244
103.039
35.8307
103.399
44.946
123.078
44.012
121.064
133.165
129.827
132.48
129.486
141.391
133.414
140.301
132.941
47.192
42.8092
47.1778
42.835
47.8554
43.0883
47.7903
43.0961
17.2681
16.5076
17.3195
16.5557
17.2977
16.5058
17.345
16.5552
9.59016
6.58298
4.3897
2.9206
20.812
65.1149
5.41665
25.2194
24.2606
74.6433
6.81574
29.6042
83.3643
79.8883
67.1385
72.5737
88.5629
82.2716
70.8002
74.4907
36.5856
34.0043
34.6037
33.0454
37.1297
34.2785
35.0295
33.3044
16.5159
15.9658
16.2155
15.8396
16.5744
15.9988
16.2858
15.8881
10.1883
7.69082
5.25463
3.35851
-4.37496
-4.39026
-7.95324
-14.0638
-6.95319
-7.32974
-6.3997
-12.8888
14.0705
17.412
8.7106
14.3025
16.2591
18.8795
11.2855
15.9712
19.8024
20.1077
18.8476
19.5449
20.3816
20.5169
19.5665
20.0457
15.1739
9.72797
8.172
5.82105
3.6761
-8.08745
-11.2262
-4.10943
-4.24789
-4.4368
-4.50872
-3.96225
0.552008
6.79251
10.9025
8.07009
11.2054
12.0986
14.0922
13.8901
14.7615
14.5068
15.0571
14.4927
14.9723
15.6143
15.8109
15.771
15.8079
12.7809
8.95858
8.04116
5.97593
3.82377
-5.73795
-6.65296
-6.74213
-11.96
-2.0416
3.1933
-4.83226
-2.51127
6.07839
9.02004
3.81134
8.16428
12.4475
12.5704
9.56684
11.3216
11.0044
11.3577
10.7511
11.2104
12.2591
12.1726
11.8199
11.936
10.0414
7.5085
7.18111
5.6671
3.77925
-4.57277
-5.88115
-4.2848
-6.23987
-4.65385
-4.49022
-3.19102
-5.83874
-3.97974
1.99496
5.66879
5.26244
5.69188
4.95992
3.55643
-5.35008
-9.85778
-2.03585
2.20446
3.08232
4.03919
4.05166
3.21348
-3.70672
-3.99235
-2.60399
0.517934
1.9808
3.48071
4.31071
3.99516
-0.994285
-2.44623
-1.55226
-0.2229
0.807357
2.17145
3.62419
4.25616
-0.285697
-0.710159
-0.319753
0.0449847
0.418822
1.17337
2.42604
3.66744
0.0995601
-0.00719648
-0.0364109
-0.103273
-0.129753
-0.119712
0.130679
0.760435
-0.0114628
2.90375
1.04417
-0.116629
-0.294571
-0.211618
0.27499
1.04632
0.0124303
-5.59785
-8.1357
-5.5194
-8.68819
-3.22772
-7.41724
2.77871
-6.62341
-0.515932
-0.776659
-0.343205
0.0346979
0.643033
1.24976
0.00348091
-8.99224
-8.30421
-12.249
-9.08366
-4.28955
-7.05815
-11.943
-8.54639
-3.52172
-0.295052
0.260481
0.57352
0.953358
1.2423
0.127522
-13.199
-2.40096
-2.38667
0.422242
-10.7113
-1.72073
-2.91955
12.3553
20.418
22.6037
25.6255
10.7497
19.9599
21.0239
24.7539
10.217
10.6276
11.6634
11.4326
10.0611
10.4574
11.211
11.0919
3.38573
1.73617
1.57128
1.63863
1.66057
5.96804
27.4694
20.8421
66.944
-1.5451
11.2422
10.1226
38.8164
76.3274
81.0777
91.7195
87.9064
66.2518
75.9367
77.6556
81.182
26.5097
24.2379
28.5041
25.2264
24.9015
23.2365
26.2408
23.934
8.19834
7.83712
8.58534
8.05088
7.82605
7.59016
8.08099
7.74168
4.0559
3.06487
2.57438
2.15952
33.2023
100.676
36.2766
102.047
10.9691
52.8128
12.6829
51.2259
131.59
126.496
130.545
125.926
110.17
116.528
108.828
115.854
38.6924
34.1292
38.6713
34.1794
35.6945
32.468
35.614
32.4901
11.9554
11.2755
12.021
11.3435
11.3352
10.9064
11.389
10.9706
6.42979
4.85603
3.68812
2.69535
16.4628
59.508
2.1494
21.0548
5.3765
29.7898
-3.91769
5.20551
84.3567
81.4956
69.8043
75.2379
71.7158
75.4995
61.2196
70.7185
33.7586
31.1421
32.3093
30.564
31.6331
29.9768
30.7963
29.6872
14.0174
13.523
13.8627
13.4987
13.5351
13.2437
13.5205
13.291
8.53079
6.74109
4.83797
3.20658
-6.76816
-8.20129
-7.06413
-6.89888
-9.35185
-10.8883
-6.36061
-3.50392
31.3948
37.8846
30.8629
37.4521
33.7357
39.352
35.5564
40.1566
28.4831
28.4602
28.5099
28.4945
28.5119
28.4999
29.1666
28.8645
18.4519
10.6631
8.44066
5.80491
3.61723
1.13877
15.6482
8.18588
34.9141
8.88785
37.7369
25.1764
69.8397
55.971
61.4376
61.9263
63.85
66.9257
66.9769
75.6688
70.2866
32.9942
31.9794
33.6305
32.2302
34.6538
32.9224
35.6551
33.3441
17.3894
17.0814
17.4933
17.1346
17.7367
17.2865
17.9261
17.3858
12.0151
9.37711
6.33145
3.85603
9.10673
37.7038
1.73585
19.6713
25.641
72.1292
12.8875
45.5676
60.9311
61.9573
53.9944
58.9362
74.4554
68.2654
65.2562
64.48
29.9911
28.5776
29.0562
28.0695
32.0597
29.7209
30.8386
29.0949
19.8155
11.1929
8.96488
6.24245
3.88077
-4.59799
-2.02248
-5.21673
-9.60038
-1.01427
5.08321
-5.64141
-9.24128
12.3332
14.7009
6.63758
11.4907
16.7131
17.1097
8.85749
12.9954
13.9765
14.0302
13.028
13.4445
14.9998
14.6832
13.6498
13.9033
11.9122
8.08134
7.28576
5.57154
3.69533
-4.64274
-6.71306
-6.34924
-5.90874
-6.44169
-7.6638
-6.42296
-7.73957
-6.77558
0.589679
4.73655
4.64945
5.14403
4.57252
3.36011
-6.39999
-10.598
-3.6958
1.21303
2.8173
4.30331
4.82791
4.18579
-1.1953
-3.20164
-1.9442
-0.19517
1.03343
2.53226
3.96607
4.44026
-0.321895
-0.789173
-0.346577
0.0601482
0.46936
1.27513
2.56582
3.78278
-0.0504759
-0.311755
-0.323457
-0.3551
-0.34231
-0.373141
-0.146777
0.512272
0.0802017
-0.52146
-0.743091
-0.919057
-0.81117
-0.76396
-0.23824
0.693789
0.376456
-2.86772
-6.24431
3.72539
-5.16648
-7.14098
-7.69783
-9.29229
-8.04625
-1.92403
-1.63684
-1.20615
-0.903082
-0.0706408
0.873248
0.0941831
-2.5735
-3.37509
-10.8536
-5.29554
-2.66604
-3.01246
-0.905714
-2.47156
-2.3605
-2.10059
-1.31223
-0.736189
0.184498
0.914781
0.249536
-8.17404
-7.62261
-5.95564
-7.63799
-4.38936
-7.07388
-6.16666
-8.42684
-5.78093
-5.56309
-5.8019
-5.68685
-5.71037
-5.77643
-6.19021
-6.1096
-4.09269
-1.82685
-0.633376
0.601723
1.28237
-0.544287
-3.29241
0.624633
1.42752
0.166415
-7.98082
-7.93663
-23.0667
-24.4905
-31.4931
-27.0607
-33.1726
-37.2476
-39.1925
-45.615
-42.9594
-15.2789
-14.9319
-15.5281
-15.0788
-17.3143
-16.2624
-18.4036
-16.7786
-5.0946
-4.96073
-5.08229
-4.948
-5.54347
-5.26313
-5.69568
-5.32734
-1.94955
-0.0288264
1.32974
1.75218
-0.230247
-3.55957
-0.567675
-9.50666
-14.3788
-46.7347
-15.0884
-52.0666
-40.5506
-49.0807
-40.6358
-48.8674
-69.7845
-64.2793
-69.9105
-64.14
-17.2803
-16.3067
-17.2224
-16.1819
-21.2348
-18.5832
-21.2203
-18.4832
-4.06351
-3.87705
-4.00096
-3.80195
-4.83818
-4.34586
-4.79013
-4.27918
-0.571309
1.49218
2.41712
2.29496
-1.54079
-8.64221
-8.11775
-15.2554
-11.7588
-33.8847
-7.44666
-23.4392
-12.4232
-12.06
-6.52298
-8.1024
-31.3884
-22.0084
-20.6069
-16.2569
-0.889893
-0.147341
0.107462
0.610409
-3.8481
-1.88313
-2.13332
-0.805179
2.60443
2.73571
2.89296
2.95837
1.96183
2.34238
2.39449
2.63238
3.26827
4.07762
3.7758
2.85283
-9.40063
-12.081
-4.11564
7.74014
-7.17922
-9.21091
-1.99273
12.9943
51.3966
63.6925
63.621
70.315
51.3728
63.3172
64.8478
70.7748
28.2396
27.5051
30.4505
28.8132
27.7448
27.1178
30.422
28.6851
12.8992
12.713
13.44
13.0477
12.6893
12.5584
13.365
12.964
8.77195
7.1289
5.12037
3.34031
14.7186
60.4044
32.842
98.0522
17.7886
70.3062
38.1925
109.282
112.025
114.928
122.937
119.232
117.815
118.05
129.209
122.595
48.379
45.2817
49.9509
46.0416
49.2075
45.7033
50.9182
46.5489
20.4171
19.7534
20.7537
19.9381
20.5368
19.8003
20.9258
20.0169
13.0366
9.35236
6.04652
3.6672
33.6124
99.6887
15.3837
64.7084
41.5173
111.86
20.5668
75.3095
117.299
111.761
104.595
106.313
122.986
114.758
109.495
108.951
46.6979
42.848
45.12
42.0514
47.712
43.4051
45.9856
42.5484
20.2547
19.4535
20.0061
19.3304
20.4537
19.5583
20.1828
19.4283
13.3042
9.65098
6.25015
3.77181
0.218821
14.4637
-6.66709
-5.8656
1.75712
17.9913
-5.77898
-5.00388
34.0904
34.8592
22.1923
28.6159
36.0908
36.073
23.4703
29.4838
23.0989
22.2961
21.0588
21.1172
23.6324
22.6203
21.4158
21.3512
16.7747
9.91817
8.07861
5.72056
3.64583
-5.71702
-5.51022
-3.94174
-6.34534
-4.90339
-5.1253
-3.71095
-5.37063
-4.65235
4.93975
5.47981
4.48894
5.07293
5.08079
5.58205
4.58788
5.13873
6.77114
5.68164
5.72749
4.74549
3.34709
-3.52793
-10.0601
-3.52685
1.81784
3.34284
4.72922
5.01768
4.19641
-1.07723
-3.25655
-2.05697
-0.166591
1.14986
2.69838
4.08938
4.46466
-0.323093
-0.813365
-0.358668
0.0639962
0.48948
1.31462
2.61049
3.79893
-0.183247
-0.635867
-0.599233
-0.587667
-0.531626
-0.59637
-0.398755
0.271487
0.865703
-4.4758
-2.89402
-1.75903
-1.28141
-1.24591
-0.705541
0.345052
0.341169
-1.54309
1.62732
-6.60804
0.876964
0.272403
2.0498
-2.01467
1.59804
-4.11162
-2.55904
-1.95127
-1.71376
-0.730357
0.490251
-0.329468
8.84202
11.9629
15.4383
13.0487
9.00615
12.2415
13.3021
13.2014
-1.26481
-1.6231
-1.05288
-1.70888
-1.23498
-1.59426
-0.946021
-1.62742
-3.56233
-2.59742
-1.86885
-0.539779
0.571496
-1.46393
13.1363
3.29792
3.14797
-1.25292
8.943
3.30884
1.97611
-13.4075
-23.5669
-25.5857
-29.4279
-15.8574
-23.8208
-27.2363
-29.763
-17.2901
-17.696
-18.7462
-18.5746
-17.3276
-17.7113
-18.8735
-18.6394
-9.75552
-4.71813
-2.56138
-0.400083
0.871779
-4.38828
-24.4861
-17.7923
-61.3175
-10.1796
-32.4041
-22.4616
-72.6424
-103.729
-115.552
-122.893
-124.714
-107.525
-117.173
-127.638
-126.707
-46.9366
-44.4997
-49.2479
-45.6946
-47.4888
-44.8248
-49.9761
-46.11
-16.0917
-15.5733
-16.4343
-15.753
-16.2145
-15.6661
-16.6039
-15.8716
-6.93725
-2.82064
0.0728207
1.28709
-31.7432
-102.364
-31.624
-105.388
-40.3536
-117.954
-36.1719
-115.62
-195.353
-201.206
-196.705
-201.871
-202.97
-204.731
-203.873
-205.281
-65.9009
-60.0462
-66.0247
-60.0488
-67.0235
-60.713
-67.1033
-60.7112
-18.4426
-17.4954
-18.4161
-17.4457
-18.6829
-17.6628
-18.664
-17.6228
-6.76605
-1.77045
1.02723
1.80298
-18.2204
-70.4218
-8.66986
-32.4668
-25.3035
-78.0411
-5.61418
-31.0991
-126.361
-127.084
-104.771
-116.619
-133.678
-130.721
-110.376
-119.759
-41.3895
-37.0564
-38.5852
-35.3976
-42.3963
-37.7235
-39.4371
-36.0248
-9.84289
-9.0798
-9.25294
-8.70071
-10.0838
-9.26056
-9.4885
-8.88489
-2.27463
1.02324
2.43137
2.36883
-4.89725
-2.6898
0.960105
15.227
-3.86851
0.530307
-0.182581
15.442
16.7599
22.8749
36.6514
34.5858
13.4664
20.7152
32.7258
32.1139
11.0196
11.0681
14.6126
13.2222
10.4082
10.5723
13.8361
12.6476
5.99231
5.99403
6.8206
6.50098
5.77594
5.82485
6.56667
6.31424
5.08771
4.79339
3.97463
2.89686
19.4318
73.7625
39.5307
113.455
18.6001
68.4525
35.8245
105.882
121.494
122.754
135.214
128.634
118.163
120.844
130.952
126.266
47.0942
43.3091
49.1199
44.3906
46.3102
42.793
48.1327
43.7935
18.0888
17.341
18.5502
17.6147
17.8271
17.1636
18.2569
17.4257
11.1019
7.83623
5.1709
3.28657
41.0514
113.425
18.7583
73.6631
36.7679
105.176
16.9943
66.2999
126.209
118.09
111.999
112.015
121.635
115.578
107.945
109.767
48.143
43.7255
46.4418
42.8996
47.2028
43.1771
45.6235
42.4089
19.8297
18.917
19.581
18.8064
19.5614
18.7499
19.3419
18.6551
12.4257
8.77356
5.63583
3.46296
-0.0298511
16.2732
-5.35115
-3.85521
0.0224179
14.4057
-7.49976
-5.90002
36.6828
36.8685
24.2393
30.2229
35.0473
35.8175
23.2227
29.5257
23.972
22.9382
21.7561
21.6673
23.4773
22.6229
21.4381
21.4437
16.5478
9.53964
7.60316
5.31495
3.4064
-5.71472
-4.4456
-3.18054
-5.03613
-4.14971
-4.38348
-3.2758
-4.98478
-4.21315
5.28083
5.7524
4.78385
5.30615
5.18229
5.67103
4.72772
5.25984
6.68237
5.51025
5.47387
4.4866
3.16724
-4.44135
-9.3118
-3.43467
1.73505
3.23055
4.5521
4.80233
4.01495
-1.05974
-3.20414
-2.07316
-0.208781
1.09798
2.60841
3.95448
4.31808
-0.314528
-0.804587
-0.357282
0.0585853
0.477215
1.2846
2.55025
3.71041
-0.247337
-0.681744
-0.703147
-0.697544
-0.636172
-0.738465
-0.586386
0.0633446
0.665884
-3.71409
-2.67901
-1.8804
-1.44843
-1.49818
-1.02796
0.0480749
0.70683
-2.80693
-2.71931
-2.41243
-2.13182
-2.08662
-1.16686
0.162761
-0.304722
4.78458
6.64399
7.4034
7.75618
8.20628
7.2148
9.68737
7.87598
-0.0958002
-3.3279
-2.84805
-2.34852
-1.01175
0.273173
0.58305
2.97291
1.80402
4.32968
-1.30148
6.34284
-0.249272
8.749
-6.51783
-9.72014
-12.4108
-13.3441
-3.52911
-8.46964
-8.59401
-11.5514
-13.4989
-14.096