# vtk DataFile Version 3.0
Gravity inversion using rectangular prisms
ASCII
DATASET UNSTRUCTURED_GRID

POINTS	4099	double
0	0	0
0	0	200
0	0	400
0	0	600
0	0	800
0	0	1000
0	200	0
0	200	200
0	200	400
0	200	600
0	200	800
0	200	1000
0	400	0
0	400	200
0	400	400
0	400	600
0	400	800
0	400	1000
0	600	0
0	600	200
0	600	400
0	600	600
0	600	800
0	600	1000
0	800	0
0	800	200
0	800	400
0	800	600
0	800	800
0	800	1000
0	1000	0
0	1000	200
0	1000	400
0	1000	600
0	1000	800
0	1000	1000
0	1200	0
0	1200	200
0	1200	400
0	1200	600
0	1200	800
0	1200	1000
0	1400	0
0	1400	200
0	1400	400
0	1400	600
0	1400	800
0	1400	1000
0	1600	0
0	1600	200
0	1600	400
0	1600	600
0	1600	800
0	1600	1000
0	1800	0
0	1800	200
0	1800	400
0	1800	600
0	1800	800
0	1800	1000
0	2000	0
0	2000	200
0	2000	400
0	2000	600
0	2000	800
0	2000	1000
200	0	0
200	0	200
200	0	400
200	0	600
200	0	800
200	0	1000
200	200	0
200	200	200
200	200	400
200	200	600
200	200	800
200	200	1000
200	400	0
200	400	200
200	400	400
200	400	600
200	400	800
200	400	1000
200	600	0
200	600	200
200	600	400
200	600	600
200	600	800
200	600	1000
200	800	0
200	800	200
200	800	400
200	800	600
200	800	800
200	800	1000
200	1000	0
200	1000	200
200	1000	400
200	1000	600
200	1000	800
200	1000	1000
200	1200	0
200	1200	200
200	1200	400
200	1200	600
200	1200	800
200	1200	1000
200	1400	0
200	1400	200
200	1400	400
200	1400	600
200	1400	800
200	1400	1000
200	1600	0
200	1600	200
200	1600	400
200	1600	600
200	1600	800
200	1600	1000
200	1800	0
200	1800	200
200	1800	400
200	1800	600
200	1800	800
200	1800	1000
200	2000	0
200	2000	200
200	2000	400
200	2000	600
200	2000	800
200	2000	1000
400	0	0
400	0	200
400	0	400
400	0	600
400	0	800
400	0	1000
400	200	0
400	200	200
400	200	400
400	200	600
400	200	800
400	200	1000
400	400	0
400	400	100
400	400	200
400	400	300
400	400	400
400	400	600
400	400	800
400	400	1000
400	500	0
400	500	100
400	500	200
400	500	300
400	500	400
400	600	0
400	600	100
400	600	200
400	600	300
400	600	400
400	600	600
400	600	800
400	600	1000
400	700	0
400	700	100
400	700	200
400	700	300
400	700	400
400	800	0
400	800	100
400	800	200
400	800	300
400	800	400
400	800	600
400	800	800
400	800	1000
400	900	200
400	900	300
400	900	400
400	1000	0
400	1000	200
400	1000	300
400	1000	400
400	1000	600
400	1000	800
400	1000	1000
400	1200	0
400	1200	200
400	1200	400
400	1200	600
400	1200	800
400	1200	1000
400	1400	0
400	1400	200
400	1400	400
400	1400	600
400	1400	800
400	1400	1000
400	1600	0
400	1600	200
400	1600	400
400	1600	600
400	1600	800
400	1600	1000
400	1800	0
400	1800	200
400	1800	400
400	1800	600
400	1800	800
400	1800	1000
400	2000	0
400	2000	200
400	2000	400
400	2000	600
400	2000	800
400	2000	1000
500	400	0
500	400	100
500	400	200
500	400	300
500	400	400
500	500	0
500	500	100
500	500	200
500	500	300
500	500	400
500	600	0
500	600	100
500	600	200
500	600	250
500	600	300
500	600	400
500	650	200
500	650	250
500	650	300
500	700	0
500	700	100
500	700	200
500	700	250
500	700	300
500	700	400
500	750	200
500	750	250
500	750	300
500	800	0
500	800	100
500	800	200
500	800	250
500	800	300
500	800	400
500	900	200
500	900	300
500	900	400
500	1000	200
500	1000	300
500	1000	400
550	600	200
550	600	250
550	600	300
550	650	200
550	650	250
550	650	300
550	700	200
550	700	250
550	700	300
550	750	200
550	750	250
550	750	300
550	800	200
550	800	250
550	800	300
600	0	0
600	0	200
600	0	400
600	0	600
600	0	800
600	0	1000
600	200	0
600	200	200
600	200	300
600	200	400
600	200	600
600	200	800
600	200	1000
600	300	200
600	300	300
600	300	400
600	400	0
600	400	100
600	400	200
600	400	300
600	400	400
600	400	500
600	400	600
600	400	800
600	400	1000
600	500	0
600	500	100
600	500	150
600	500	200
600	500	300
600	500	400
600	500	500
600	500	600
600	550	100
600	550	150
600	550	200
600	600	0
600	600	50
600	600	100
600	600	150
600	600	200
600	600	250
600	600	300
600	600	350
600	600	400
600	600	500
600	600	600
600	600	800
600	600	1000
600	650	0
600	650	50
600	650	100
600	650	150
600	650	200
600	650	250
600	650	300
600	650	350
600	650	400
600	700	0
600	700	50
600	700	100
600	700	150
600	700	200
600	700	250
600	700	300
600	700	350
600	700	400
600	700	500
600	700	600
600	750	0
600	750	50
600	750	100
600	750	150
600	750	200
600	750	250
600	750	300
600	750	350
600	750	400
600	800	0
600	800	50
600	800	100
600	800	150
600	800	200
600	800	250
600	800	300
600	800	350
600	800	400
600	800	500
600	800	600
600	800	800
600	800	1000
600	850	200
600	850	250
600	850	300
600	850	350
600	850	400
600	900	0
600	900	100
600	900	200
600	900	250
600	900	300
600	900	350
600	900	400
600	900	500
600	900	600
600	950	200
600	950	250
600	950	300
600	950	350
600	950	400
600	1000	0
600	1000	100
600	1000	200
600	1000	250
600	1000	300
600	1000	350
600	1000	400
600	1000	500
600	1000	600
600	1000	800
600	1000	1000
600	1100	200
600	1100	300
600	1100	400
600	1200	0
600	1200	100
600	1200	200
600	1200	300
600	1200	400
600	1200	500
600	1200	600
600	1200	700
600	1200	800
600	1200	1000
600	1300	0
600	1300	100
600	1300	200
600	1300	300
600	1300	400
600	1300	500
600	1300	600
600	1300	700
600	1300	800
600	1400	0
600	1400	100
600	1400	200
600	1400	300
600	1400	400
600	1400	500
600	1400	600
600	1400	700
600	1400	800
600	1400	1000
600	1500	200
600	1500	300
600	1500	400
600	1500	500
600	1500	600
600	1600	0
600	1600	200
600	1600	300
600	1600	400
600	1600	500
600	1600	600
600	1600	800
600	1600	1000
600	1700	200
600	1700	300
600	1700	400
600	1800	0
600	1800	200
600	1800	300
600	1800	400
600	1800	600
600	1800	800
600	1800	1000
600	2000	0
600	2000	200
600	2000	400
600	2000	600
600	2000	800
600	2000	1000
650	500	100
650	500	150
650	500	200
650	550	100
650	550	150
650	550	200
650	600	0
650	600	50
650	600	100
650	600	150
650	600	200
650	600	250
650	600	300
650	600	350
650	600	400
650	650	0
650	650	50
650	650	100
650	650	150
650	650	200
650	650	250
650	650	300
650	650	350
650	650	400
650	700	0
650	700	50
650	700	100
650	700	150
650	700	200
650	700	250
650	700	300
650	700	350
650	700	400
650	750	0
650	750	50
650	750	100
650	750	150
650	750	200
650	750	300
650	750	350
650	750	400
650	800	0
650	800	50
650	800	100
650	800	150
650	800	200
650	800	250
650	800	300
650	800	350
650	800	400
650	850	200
650	850	250
650	850	300
650	850	350
650	850	400
650	900	200
650	900	250
650	900	300
650	900	350
650	900	400
650	950	200
650	950	250
650	950	300
650	950	350
650	950	400
650	1000	200
650	1000	250
650	1000	300
650	1000	350
650	1000	400
700	200	200
700	200	300
700	200	400
700	300	200
700	300	300
700	300	400
700	400	0
700	400	100
700	400	200
700	400	300
700	400	400
700	400	500
700	400	600
700	500	0
700	500	100
700	500	150
700	500	200
700	500	300
700	500	400
700	500	500
700	500	600
700	550	100
700	550	150
700	550	200
700	600	0
700	600	50
700	600	100
700	600	150
700	600	200
700	600	250
700	600	300
700	600	350
700	600	400
700	600	500
700	600	600
700	650	0
700	650	50
700	650	100
700	650	150
700	650	200
700	650	250
700	650	300
700	650	350
700	650	400
700	700	0
700	700	50
700	700	100
700	700	150
700	700	200
700	700	250
700	700	300
700	700	350
700	700	400
700	700	500
700	700	600
700	750	0
700	750	50
700	750	100
700	750	150
700	750	200
700	750	300
700	750	350
700	750	400
700	800	0
700	800	50
700	800	100
700	800	150
700	800	200
700	800	250
700	800	300
700	800	350
700	800	400
700	800	500
700	800	600
700	850	200
700	850	250
700	850	300
700	850	350
700	850	400
700	900	0
700	900	100
700	900	200
700	900	250
700	900	300
700	900	350
700	900	400
700	900	500
700	900	600
700	950	200
700	950	250
700	950	300
700	950	350
700	950	400
700	1000	0
700	1000	100
700	1000	200
700	1000	250
700	1000	300
700	1000	350
700	1000	400
700	1000	500
700	1000	600
700	1100	200
700	1100	300
700	1100	400
700	1200	0
700	1200	100
700	1200	200
700	1200	250
700	1200	300
700	1200	350
700	1200	400
700	1200	500
700	1200	600
700	1200	700
700	1200	800
700	1250	200
700	1250	250
700	1250	300
700	1250	350
700	1250	400
700	1300	0
700	1300	100
700	1300	200
700	1300	250
700	1300	300
700	1300	350
700	1300	400
700	1300	500
700	1300	600
700	1300	700
700	1300	800
700	1350	300
700	1350	350
700	1350	400
700	1400	0
700	1400	100
700	1400	200
700	1400	300
700	1400	350
700	1400	400
700	1400	500
700	1400	600
700	1400	700
700	1400	800
700	1450	300
700	1450	350
700	1450	400
700	1500	200
700	1500	300
700	1500	350
700	1500	400
700	1500	500
700	1500	600
700	1550	300
700	1550	350
700	1550	400
700	1600	200
700	1600	300
700	1600	350
700	1600	400
700	1600	500
700	1600	600
700	1700	200
700	1700	300
700	1700	400
700	1800	200
700	1800	300
700	1800	400
750	500	100
750	500	150
750	500	200
750	550	100
750	550	150
750	550	200
750	600	0
750	600	50
750	600	100
750	600	150
750	600	200
750	650	0
750	650	50
750	650	100
750	650	150
750	650	200
750	700	0
750	700	50
750	700	100
750	700	150
750	700	200
750	750	0
750	750	50
750	750	100
750	750	150
750	750	200
750	800	0
750	800	50
750	800	100
750	800	150
750	800	200
750	800	250
750	800	300
750	850	200
750	850	250
750	850	300
750	900	200
750	900	250
750	900	300
750	950	200
750	950	250
750	950	300
750	1000	200
750	1000	250
750	1000	300
750	1200	200
750	1200	250
750	1200	300
750	1200	350
750	1200	400
750	1250	200
750	1250	250
750	1250	300
750	1250	350
750	1250	400
750	1300	200
750	1300	250
750	1300	300
750	1300	350
750	1300	400
750	1350	300
750	1350	350
750	1350	400
750	1400	300
750	1400	350
750	1400	400
750	1450	300
750	1450	350
750	1450	400
750	1500	300
750	1500	350
750	1500	400
750	1550	300
750	1550	350
750	1550	400
750	1600	300
750	1600	350
750	1600	400
800	0	0
800	0	200
800	0	400
800	0	600
800	0	800
800	0	1000
800	200	0
800	200	200
800	200	300
800	200	400
800	200	600
800	200	800
800	200	1000
800	300	200
800	300	300
800	300	400
800	400	0
800	400	100
800	400	200
800	400	300
800	400	400
800	400	500
800	400	600
800	400	800
800	400	1000
800	500	0
800	500	100
800	500	150
800	500	200
800	500	300
800	500	400
800	500	500
800	500	600
800	550	100
800	550	150
800	550	200
800	600	0
800	600	50
800	600	100
800	600	150
800	600	200
800	600	300
800	600	350
800	600	400
800	600	500
800	600	600
800	600	800
800	600	1000
800	650	0
800	650	50
800	650	100
800	650	150
800	650	200
800	650	300
[...]
CELL_DATA	2670
SCALARS model double 1
LOOKUP_TABLE table0
0.240266
-1.09996
-2.36395
-3.3251
-4.27265
0.252023
-0.627569
-2.38253
-3.38061
-4.3413
-0.173531
0.00939368
-3.23311
-4.66953
-6.01362
-0.134803
0.0685169
-3.41612
-4.82116
-6.20163
-0.0830571
-1.85094
-3.60258
-4.82968
-6.27853
-0.608257
-1.70903
-2.99083
-4.40623
-5.67901
-0.240724
-0.922013
-2.61661
-4.34004
-5.58491
0.120658
-4.30381
-2.86376
-4.0865
-5.40462
-0.337212
5.59138
-1.91535
-9.43028
-12.0961
0.0488256
-0.797374
-3.22751
-9.55685
-12.2472
-0.242413
0.350108
-0.504213
-3.64228
-4.6746
-0.372129
0.654502
-1.57072
-3.68746
-4.74319
0.00852884
-0.998602
-2.70574
-4.66181
-5.99267
-0.365002
-0.437902
-3.27787
-4.65214
-5.97883
-0.650527
-2.01908
-3.39871
-4.70636
-6.05446
-1.33232
-1.57906
-3.07697
-4.35687
-5.601
-1.38232
-1.14871
-2.70141
-4.23081
-5.45309
-0.66932
-2.12401
-2.76216
-4.12617
-5.30213
-0.249881
-2.50649
-3.5496
-9.52363
-12.245
-0.000641127
-2.55689
-3.52726
-9.52374
-12.2479
-0.813162
2.11623
-0.498166
-1.29235
-1.66345
-1.03145
-0.0662441
-0.775451
-1.36367
-1.75492
-0.828566
-2.30448
-0.764762
-2.30036
-0.838225
-2.30469
-0.782428
-2.30009
17.6447
25.0615
18.0357
26.3821
17.854
25.0423
18.5782
26.3912
40.364
4.63489
5.96332
2.76748
4.33661
2.77392
4.33719
2.77277
4.36254
2.77435
4.36262
16.815
63.9518
16.8139
63.9518
120.715
121.293
120.716
121.293
120.717
121.295
120.717
121.295
68.299
120.716
121.293
120.714
121.292
120.717
121.294
120.715
121.293
68.2987
49.7623
16.1874
20.8316
1.01935
2.31965
4.18008
2.30894
4.16537
3.08961
4.40272
2.3919
3.58279
23.7348
16.7062
21.4761
-1.98979
-7.92737
-3.14569
11.9556
15.3715
-2.14114
-5.43905
-3.28659
5.31229
6.9541
-1.34892
-4.75238
-3.44165
-3.497
-4.49548
-0.790134
-1.00189
-3.06285
-9.60501
-12.3453
-0.421957
0.355082
-2.85708
-9.60131
-12.355
-0.306631
0.297578
-1.02758
-1.44536
-1.85742
-1.21286
0.670878
0.898056
0.788115
0.970185
0.760475
0.957627
0.756936
0.995585
14.3998
-0.114472
-0.149015
-9.77341
35.7999
-9.77503
151.976
152.5
151.977
152.501
151.976
152.5
151.976
152.501
-6.01587
36.8829
-6.03612
151.957
152.509
151.958
152.51
151.957
152.51
151.957
152.511
59.6243
115.734
135.514
119.229
60.0183
115.736
135.514
119.226
40.9946
41.7902
41.0014
43.7101
40.995
41.4005
41.0019
42.2493
5.98578
7.69803
-8.96809
-8.6311
-8.96804
-8.63058
-8.9683
-8.63174
-8.96823
-8.63112
195.294
196.201
195.296
196.205
195.291
196.205
195.294
196.208
-8.59843
-8.59355
-8.59811
-8.59267
-8.59854
-8.59374
-8.59815
-8.59274
198.856
199.428
198.856
199.428
198.857
199.429
198.857
199.429
-12.7579
-12.642
-12.7579
-12.6418
-12.758
-12.6425
-12.758
-12.6424
195.278
196.212
195.28
196.216
195.275
196.218
195.278
196.221
-8.63544
-8.63486
-8.63505
-8.63382
-8.63585
-8.63558
-8.63559
-8.63472
198.877
199.479
198.877
199.479
198.878
199.481
198.878
199.481
245.433
245.955
245.433
245.955
245.433
245.957
245.433
245.958
180.618
181.47
180.618
181.469
180.618
181.481
180.618
181.48
249.514
180.592
181.468
180.585
181.466
180.592
181.479
180.585
181.477
236.03
176.544
236.032
176.529
52.3065
45.5788
52.305
45.8669
52.2857
45.436
52.2842
45.8318
16.2608
20.8861
3.51809
8.94877
3.42562
3.92703
3.51785
8.94878
3.42566
3.92686
246.516
246.921
246.514
246.919
246.516
246.921
246.514
246.919
112.741
113.531
112.732
113.524
112.741
113.533
112.733
113.525
64.9579
69.7221
64.9552
69.7193
64.9591
69.7215
64.9564
69.7187
107.978
113.42
107.975
113.411
107.977
113.419
107.974
113.409
233.12
234.378
233.12
234.379
233.117
234.374
233.117
234.375
122.015
67.6275
69.258
67.6246
69.2551
67.6315
69.2576
67.6288
69.2546
104.074
51.9864
46.2561
51.9849
46.2557
51.9853
46.2527
51.9838
46.2522
17.5279
22.5326
-6.42571
-21.5742
-37.6705
-22.2039
-38.6919
-21.6436
-37.6709
-22.4326
-38.6917
7.329
20.7388
26.6646
-4.16259
-10.5484
-2.45286
-7.93263
-4.18096
-10.5606
-2.45807
-7.9337
-31.4981
-44.0042
-31.7885
-44.6047
-30.7962
-35.5193
-30.796
-35.519
-30.7959
-35.5189
-30.7956
-35.5186
-43.11
-49.1704
-43.4724
-49.7233
-43.1096
-49.1699
-43.472
-49.7228
-31.8268
-45.2763
-52.0145
-45.2787
-51.9991
-45.2759
-52.014
-45.2783
-51.9986
6.27886
5.44967
4.38909
5.40596
6.27938
5.45227
4.39115
5.40845
5.7618
6.55691
5.76122
6.55608
5.81602
6.11863
5.81505
6.11069
7.44687
-3.59091
-31.8117
-44.6064
-31.8692
-44.4519
-31.8276
-45.3722
-51.2894
-45.3948
-51.2875
-45.3718
-51.289
-45.3944
-51.287
-31.882
-45.4482
-51.267
-45.4484
-51.2661
-45.4478
-51.2666
-45.448
-51.2656
1.04536
5.46302
1.04066
5.46311
1.04679
5.46821
1.04245
5.46771
6.14897
7.77219
-1.96211
-11.0357
-15.3997
-10.7808
-15.3871
-11.0827
-15.3838
-10.7695
-15.3815
-3.20143
-4.42886
-5.96771
-0.0711571
-12.9078
-14.2435
-4.18028
-5.13055
-0.265935
-2.0155
-1.20999
-1.19698
-1.52035
-0.975975
10.0381
4.05259
0.923747
1.18744
0.293395
11.0737
0.270642
11.1029
0.31063
9.15019
-3.22219
9.00797
52.764
75.0254
54.4432
78.1501
56.4189
78.6721
54.8901
82.5426
6.96558
2.24494
2.90596
-21.4788
-21.3494
-21.479
-21.3499
-21.4788
-21.3539
-21.479
-21.3543
198.245
198.752
198.246
198.753
198.245
198.752
198.246
198.753
-23.5062
-23.2494
-23.5062
-23.2495
-23.5064
-23.2504
-23.5064
-23.2506
257.108
257.458
257.108
257.459
257.108
257.458
257.108
257.458
-19.2055
129.496
133.734
129.498
134.235
129.495
134.141
129.495
134.283
-35.5207
-35.4853
-35.5209
-35.4855
-35.521
-35.4859
-35.5211
-35.4862
149.365
150.172
149.365
150.171
149.358
150.166
149.358
150.166
213.611
176.015
176.839
176.015
176.841
176.014
176.838
176.014
176.84
213.586
168.36
172.179
174.331
172.442
174.33
172.297
174.328
172.641
174.327
165.557
163.219
165.557
163.219
165.55
163.215
165.551
163.215
167.844
174.327
148.582
174.314
167.837
174.326
148.552
174.313
165.551
163.218
165.547
163.217
165.547
163.214
165.543
163.214
36.7595
44.0832
36.2507
44.0824
36.7402
43.6616
35.678
43.6477
14.4635
18.7627
-12.69
-8.37359
-12.8213
-10.0899
-12.9311
-10.1746
-12.9301
-10.2181
189.27
190.93
189.267
190.926
189.266
190.923
189.263
190.92
121.438
96.6353
98.3748
96.6319
98.3719
96.6395
98.3787
96.6371
98.3763
103.644
117.765
118.718
117.764
118.718
117.762
118.716
117.761
118.716
119.86
125.25
125.716
125.25
125.717
125.251
125.717
125.251
125.717
103.622
36.9483
43.9414
36.4186
43.973
35.3957
43.3601
36.0794
43.7362
17.7628
22.8113
-14.7002
-15.7326
-14.6988
-15.7314
-14.7
-15.7327
-14.6986
-15.7308
16.6802
24.3691
16.6782
24.3236
18.5473
24.6483
18.8787
24.35
31.9371
42.3601
31.7066
42.3601
31.9296
42.3583
31.7036
42.3582
49.8495
43.7976
49.8539
43.8025
49.8494
43.7966
49.8535
43.8011
33.7193
-9.06958
-68.6709
-68.8688
-68.6707
-68.8686
-68.6703
-68.8683
-68.6702
-68.8681
2.30829
2.31935
3.10935
-3.93409
21.3642
-2.93694
99.0243
124.325
99.0508
124.327
99.1019
124.24
99.1201
124.256
143.582
143.442
143.367
143.443
143.582
143.445
143.371
143.446
113.432
138.736
113.44
138.791
143.447
143.447
143.447
143.448
143.376
143.447
143.4
143.444
143.448
143.448
143.448
143.448
142.226
143.91
143.912
143.913
142.227
143.913
143.913
143.914
143.916
148.705
149.23
142.483
142.951
143.447
143.448
143.918
143.918
146.985
144.314
155.863
157.688
155.864
157.689
155.863
157.689
155.863
157.69
156.05
157.807
156.051
157.808
156.049
157.805
156.051
157.807
155.862
157.689
155.857
157.687
155.862
157.69
155.857
157.688
156.051
157.808
156.049
157.806
156.051
157.806
156.048
157.804
151.69
151.278
151.69
151.278
44.8681
50.269
44.8717
50.2757
44.8693
50.2702
44.8729
50.2768
2.31387
1.88309
-3.58801
-9.87422
21.8064
-2.93921
1.15665
-2.93862
113.534
138.75
113.521
138.725
143.447
143.448
143.447
143.449
143.417
143.444
143.417
143.443
143.449
143.448
143.449
143.447
113.559
138.784
113.526
138.709
143.447
143.449
113.533
138.725
143.418
143.441
143.417
143.435
143.449
143.447
143.436
143.441
146.986
146.985
113.024
138.742
112.963
138.742
112.846
138.789
112.837
138.84
153.353
152.925
153.353
152.925
153.357
152.929
153.356
152.929
143.446
143.448
142.367
143.446
142.364
143.447
142.366
143.446
142.363
143.387
143.507
143.378
143.501
143.387
143.506
143.377
143.5
104.87
146.985
74.9959
74.9958
91.2941
68.2339
68.5614
68.2045
68.5459
68.2338
68.5612
68.2069
68.547
72.4032
81.8829
72.4037
81.8835
72.4028
81.8828
72.4033
81.8833
-4.50903
-11.0335
-14.957
-12.104
-15.3424
-10.9362
-13.645
-16.5754
-13.6589
-16.5763
-13.6446
-16.5751
-13.6585
-16.576
-12.214
-15.3405
3.79531
4.9368
3.7906
4.63032
3.80013
4.94081
3.79044
4.63597
4.17971
11.463
-0.0154559
-14.8078
-29.7454
6.98417
12.0817
0.0194938
0.901072
-0.428085
-0.823709
-1.06069
-0.0677523
-1.69204
-3.16383
-4.45232
-5.71988
-0.0191019
-8.39062
-1.71659
-7.84805
-2.8454
-8.42571
-3.06069
-8.01203
-30.9461
-37.4545
-30.4033
-37.7944
-33.7442
-37.9794
-28.9334
-37.9613
-20.6216
-9.4605
-12.1631
-6.51825
-6.74305
-8.52256
-6.74622
-8.52415
-6.74308
-8.52388
-6.74614
-8.52541
-15.6433
34.5986
35.2305
34.5971
35.2301
34.5987
35.2296
34.5961
35.2291
6.8259
-158.319
-159.799
-158.319
-159.799
-158.326
-159.802
-158.327
-159.803
-6.76224
-47.7391
-50.8685
-47.7398
-50.8678
-47.741
-50.8736
-47.741
-50.872
-51.1637
-66.7758
-51.1795
-66.7791
-51.317
-66.7809
-51.3173
-66.7832
-69.438
-78.7701
-69.3166
-79.3806
-69.439
-78.7798
-69.2518
-79.3898
-85.6766
-77.6869
-86.5101
-77.735
-85.6767
-77.7048
-86.5102
-77.7405
-69.0963
-79.1826
-68.8537
-79.3089
-69.089
-79.1969
-68.851
-79.3053
-70.1524
-72.5719
-73.4463
-72.6553
-23.4003
-24.4571
-23.9714
-24.5497
-23.3992
-24.528
-23.9735
-24.5443
-10.1234
-13.0113
-10.6765
-33.3916
-10.9799
-32.6811
-10.0147
-34.6258
-9.73405
-35.8932
-31.3787
-40.2208
-30.666
-39.8997
-60.5063
-43.6645
-60.5637
-42.7258
-23.9573
-24.584
-23.4945
-24.6615
-24.007
-24.895
-23.9931
-24.6817
13.4809
17.343
-13.3602
14.9231
20.6977
16.6091
24.3691
14.8809
20.3682
16.6069
25.6732
26.977
33.3363
31.4267
38.9132
27.2764
33.3097
33.0252
38.4066
24.7955
27.8526
24.8009
27.856
24.7935
27.8403
24.7989
27.8448
25.4882
1.63651
26.504
47.0243
-2.93644
9.05501
26.5028
47.0793
-2.92868
-2.94296
-2.92852
-2.94323
-2.47041
-2.94281
-2.47038
-2.94266
143.915
143.917
148.668
158.793
143.916
143.918
148.105
159.991
143.918
143.919
146.984
147.15
143.919
143.92
146.985
142.333
107.529
100.133
107.529
100.463
107.529
100.127
107.53
100.432
47.7144
46.3507
-2.93958
4.69295
-2.93924
47.5139
-2.94067
15.7838
-2.42339
-3.47933
-2.40709
-3.48915
-2.42876
-3.4321
-2.43196
-3.5191
146.986
146.986
157.258
158.049
157.258
158.049
157.263
158.055
157.263
158.054
184.461
146.975
146.997
146.985
146.985
146.957
147.034
146.984
146.985
146.986
239.062
239.886
239.062
239.886
239.059
239.887
239.059
239.886
191.623
146.985
113.969
113.969
113.238
146.985
120.393
120.393
120.303
96.8841
61.5405
-2.11556
-6.86143
-2.16407
-7.13732
-2.01786
-6.79086
-2.16261
-7.21297
31.9645
42.0063
-17.8438
-11.0429
29.0227
35.286
29.0196
35.2825
29.0277
35.3179
29.0245
35.3141
42.5998
-17.7853
-11.1337
30.1453
23.6487
-12.9441
14.4636
30.1537
23.6405
-12.9967
14.4636
23.9423
30.8042
-0.505061
-21.4918
-36.5266
14.6552
18.841
0.0442531
1.22742
0.109222
-0.0872668
-0.122312
-0.491926
-8.43858
-7.5316
-7.87099
-10.1053
-9.94253
-19.5565
-11.7986
-19.7048
-12.7492
-19.5669
-12.7824
-19.7324
-77.1814
-97.061
-70.5131
-101.003
-76.6818
-95.8382
-76.3504
-100.968
-33.5711
-18.5588
-23.8613
11.9044
11.7098
11.9044
11.7098
11.9045
11.7096
11.9044
11.7096
-271.281
-271.821
-271.28
-271.821
-271.284
-271.822
-271.283
-271.821
-15.5651
-162.191
-162.669
-162.19
-162.669
-162.19
-162.669
-162.19
-162.669
-12.7883
-13.1088
-12.7883
-13.109
-12.7883
-13.1088
-12.7883
-13.1091
-271.297
-271.813
-271.297
-271.813
-271.298
-271.807
-271.298
-271.807
-20.0341
-137.758
-141.525
-137.757
-141.522
-137.756
-141.518
-137.755
-141.516
-220.435
-194.12
-196.637
-194.125
-196.633
-194.12
-196.634
-194.125
-196.631
-217.954
-194.115
-196.628
-194.114
-196.622
-194.115
-196.625
-194.114
-196.62
-220.43
-181.134
-218.117
-181.131
-82.3381
-80.1291
-82.3497
-80.1281
-82.3283
-80.0444
-82.3324
-80.043
-22.6225
-29.1058
-15.3848
-54.4221
-13.153
-33.9441
-26.6802
-78.5068
-12.3721
-25.5973
-103.391
-107.2
-59.6886
-101.347
-109.748
-107.286
-73.4975
-101.221
-77.9171
-80.0445
-77.5372
-80.0438
-77.8006
-80.066
-77.6159
-80.0695
-22.2675
-28.9582
-10.9943
16.5344
23.054
18.0801
25.316
17.3695
23.9901
19.3606
26.7532
29.508
21.3222
31.1048
21.6508
20.8986
21.163
23.0954
21.1613
24.2544
11.3611
23.4415
25.0346
23.4428
25.037
23.4421
25.0342
23.4433
25.0366
11.2984
24.2502
11.3975
24.4431
11.3744
12.9098
9.76357
29.4688
47.2986
-2.94156
9.1628
37.6261
47.2973
-2.94128
143.917
143.919
148.764
159.983
143.892
143.922
143.925
143.925
139.605
143.927
143.924
143.923
143.922
149.591
159.947
143.92
143.921
146.985
145.602
143.922
143.923
146.985
144.399
208.635
212.532
208.689
212.537
208.634
212.531
208.689
212.537
5.10475
5.45487
5.10068
5.45055
5.10499
5.45498
5.10072
5.45057
208.702
212.539
208.703
212.537
208.702
212.538
208.702
212.537
5.09851
5.44789
5.10071
5.44974
5.09831
5.44789
5.10043
5.44963
150.344
162.593
150.319
162.589
150.344
162.591
150.318
162.587
5.10879
5.45818
5.10416
5.4535
5.11766
5.46813
5.11295
5.46327
149.507
161.371
149.327
161.369
149.485
161.377
149.309
161.378
5.10144
5.451
5.10318
5.45253
5.11043
5.46008
5.1117
5.46101
5.97805
6.67117
5.97225
6.66604
5.9807
6.67642
5.97091
6.67075
47.6185
-2.94122
14.7104
-2.51932
-3.40139
-2.46702
-3.49379
-2.49247
-3.34682
-2.47464
-3.43183
47.5873
-2.94153
13.6073
-2.94093
146.981
147
146.984
146.984
146.982
146.996
146.984
146.984
146.985
238.962
239.853
238.962
239.852
238.956
239.848
238.956
239.848
191.657
146.985
146.985
153.263
154.638
153.262
154.637
153.26
154.475
153.26
154.475
187.913
146.985
144.631
144.631
144.566
146.985
152.657
152.657
152.298
81.1967
72.8265
80.5172
72.828
81.1951
72.8085
80.5112
72.8101
33.1514
-0.316739
-1.00639
-0.69301
-2.03723
-0.224267
-0.966984
-0.222307
0.185095
32.4939
38.8322
32.4837
38.8236
32.5417
38.807
32.5309
38.7991
32.0308
-75.1882
-75.7899
-75.1885
-75.7902
-75.1874
-75.7919
-75.1877
-75.7922
-12.0007
32.5652
38.6692
32.5578
38.6628
32.5666
38.6615
32.5598
38.6554
32.0284
-75.1653
-75.8
-75.1655
-75.7998
-75.1625
-75.8004
-75.1627
-75.8002
-12.0931
29.8581
23.3693
-12.3843
-13.2713
29.8542
23.2778
-11.3496
-13.1694
5.89349
6.92285
0.27928
-7.09527
-9.44722
-7.09382
-9.44775
-7.09454
-9.44668
-7.09346
-9.44715
-18.398
4.53008
6.6176
-0.22172
2.15034
2.10862
0.291725
0.384991
-0.388894
1.72887
-7.18864
-10.5112
-13.7641
-9.34744
-20.3235
-9.83898
-20.3571
-2.36484
-12.7744
-2.3848
-12.8268
-65.4533
-95.6308
-64.6355
-95.9321
-57.485
-80.8838
-64.8921
-85.0273
-35.6357
-18.4045
-23.6909
-10.4047
-11.4106
-10.4047
-11.4108
-10.4045
-10.8611
-10.4043
-10.8611
-203.172
-204.083
-203.171
-204.083
-203.166
-204.077
-203.165
-204.077
-20.0594
-72.6569
-73.3871
-72.6558
-73.3845
-72.6552
-73.3601
-72.6546
-73.3586
-1.72369
-102.403
-103.614
-102.403
-103.614
-102.401
-103.612
-102.401
-103.612
-2.75517
-60.3056
-175.552
-165.282
-157.734
-165.713
-171.31
-172.033
-171.309
-172.032
-171.309
-171.943
-171.308
-171.942
-163.424
-165.486
-163.573
-165.632
-163.297
-166.184
-163.603
-166.734
-161
-161.781
-160.998
-161.779
-160.999
-161.781
-160.997
-161.778
-163.703
-166.056
-163.827
-166.097
-163.643
-166.774
-163.851
-166.366
-82.2976
-80.0107
-82.2964
-80.0265
-82.3011
-79.9952
-82.2985
-79.9979
-22.5533
-28.7767
-18.7727
-56.8098
-5.94357
-17.2292
-3.67603
-8.92339
-1.87281
-8.8997
-95.7412
-107.803
-101.204
-101.428
-102.129
-106.172
-111.305
-111.917
-111.303
-111.916
-111.304
-111.919
-111.302
-111.918
-103.12
-77.6289
-80.0096
-77.209
-80.0247
-77.5664
-80.0456
-76.8813
-80.0246
-22.3428
-28.556
-6.26988
-5.41731
-4.73626
-9.31971
-0.86542
-11.9321
-4.6442
-15.9423
-9.00505
-13.5657
-25.6177
-28.6329
-25.6185
-28.6336
-25.618
-28.6332
-25.6188
-28.6339
-13.5576
-22.706
-16.9372
-27.6106
-16.3775
-4.0455
-1.34652
-3.86162
-1.33819
-6.81293
-1.51582
-6.96597
-1.50938
-1.6369
-2.04917
-1.62922
-2.04341
-1.76595
-2.14977
-1.7553
-2.13657
-3.7749
4.76698
-23.4166
-24.0347
-23.417
-24.0355
-23.4168
-24.0349
-23.4172
-24.0356
22.8072
-2.94179
3.49535
-20.9155
4.84499
-2.94185
132.224
143.886
143.924
143.924
92.0149
112.541
143.924
143.924
143.923
146.985
146.985
85.142
103.949
143.923
143.924
84.6034
103.384
84.822
103.242
143.922
141.677
156.171
141.677
156.171
85.3315
106.176
88.3224
106.622
142.319
143.924
143.924
146.984
144.566
143.924
144.481
144.566
144.544
156.646
165.065
165.81
165.067
165.81
165.081
165.812
165.083
165.813
156.45
165.066
165.809
165.064
165.808
165.082
165.812
165.08
165.811
162.138
162.894
162.14
162.895
162.138
162.894
162.14
162.895
165.091
165.813
165.093
165.813
165.092
165.812
165.093
165.813
162.138
162.895
162.133
162.891
162.138
162.894
162.132
162.891
165.093
165.813
165.09
165.811
165.093
165.812
165.091
165.81
5.98668
6.68728
5.99112
6.69226
5.98618
6.68863
5.99279
6.69228
22.9479
-2.94199
13.7384
-2.94149
7.87513
-2.94221
-2.57021
-5.10111
146.985
146.985
142.935
143.546
142.893
143.514
142.93
143.527
142.888
143.498
154.71
154.754
154.698
154.727
154.693
154.733
154.686
154.695
142.99
143.473
143.005
143.47
89.9809
108.315
90.8365
111.278
154.759
154.686
154.76
154.686
150.865
154.445
150.864
154.445
105.342
127.249
105.404
127.358
104.176
126.946
105.306
128.806
150.441
151.885
150.209
151.832
149.682
151.855
150.303
151.704
146.985
74.3648
76.4285
74.3653
76.4289
74.3653
76.4291
74.3658
76.4295
74.2554
74.7687
73.3985
75.5141
73.6502
74.89
73.3964
75.5812
156.709
171.298
156.709
171.298
156.764
171.304
156.736
171.304
74.2988
74.5271
74.2913
74.5278
73.5794
76.4271
73.575
76.4259
178.479
181.471
178.477
181.468
178.478
181.47
178.477
181.468
73.3273
76.2348
73.2804
76.2368
73.1025
76.2653
73.0963
76.2638
157.101
176.127
157.106
176.114
157.222
176.127
157.19
176.114
17.1585
17.4527
17.06
17.3006
14.7504
15.6045
14.7488
15.6036
14.7476
15.6029
14.746
15.6019
17.1265
15.2414
17.0902
7.65747
1.815
1.82414
1.81582
1.83217
1.60401
1.80568
1.67051
1.81618
-41.9344
-48.2149
-41.9349
-48.2149
-41.9352
-48.2195
-41.9356
-48.2194
-58.039
-63.0573
-58.0392
-63.0576
-58.041
-63.0792
-58.0413
-63.0794
-32.448
-45.4238
-41.8389
-48.1952
-41.8388
-48.1957
-41.8375
-48.195
-41.8378
-48.1951
-58.0408
-63.0851
-58.0411
-63.0852
-58.0409
-63.0953
-58.0413
-63.0954
-32.3951
-45.3201
-9.45766
-11.4476
-12.4057
-11.4329
-12.399
-11.4472
-12.4035
-11.4326
-12.3985
-9.75693
-11.4563
-9.48413
-11.2769
-12.2167
-11.2912
-12.2274
-11.2879
-12.3921
-11.3223
-12.4103
-9.76086
-11.6676
5.13503
5.92804
5.12909
5.92626
5.13385
5.9272
5.12527
5.9224
7.11121
2.14728
-20.0793
-10.0488
3.24715
6.39188
0.0638153
-0.66906
1.21104
1.80042
1.97627
0.109868
2.04856
1.27758
1.98291
2.50163
-0.318455
-1.68849
0.0117072
-0.401891
-0.560376
0.740707
0.553867
0.448355
0.529668
-0.238592
-0.19615
0.175237
0.524277
-6.92665
-8.74027
-5.5483
-8.08384
-5.38356
-8.52465
-5.9664
-7.22517
-30.4079
-6.75679
-8.59008
0.569118
-7.42268
-10.8947
-7.37057
-10.9173
-7.42141
-10.8462
-7.25614
-10.9147
-31.1528
-7.86674
-10.0983
-0.662958
-11.9183
-16.5192
-50.8811
-16.5037
-6.59451
-11.985
-14.1249
-15.9939
-7.43075
-7.84077
-7.265
-7.84158
-7.48465
-7.9443
-7.51771
-7.9576
-7.44695
-8.51461
-7.44489
-8.51205
-7.49663
-8.60847
-7.49584
-8.60137
-10.2624
-1.56416
-28.1384
-1.78139
-6.07344
1.00645
-28.2634
0.277924
-2.71067
-40.8126
-49.8178
-40.1782
-44.1037
-41.1396
-50.0483
-40.9421
-49.8641
138.381
146.12
138.38
146.122
138.379
146.119
138.378
146.12
-29.1232
-43.7533
-29.0996
-41.6424
-33.5285
-40.6271
-33.2267
-40.6733
124.751
146.567
124.737
146.567
124.748
146.561
124.733
146.561
-48.6156
-14.7194
-16.9842
-14.7106
-16.9662
-14.7668
-17.0334
-14.7754
-17.0365
-35.3032
-14.0394
-16.202
-14.1698
-16.364
-14.046
-16.2185
-14.1539
-16.3071
163.506
167.736
163.514
167.735
163.505
167.735
163.513
167.734
167.34
167.335
167.341
167.335
167.34
167.335
167.341
167.336
165.978
167.732
165.978
167.725
165.977
167.731
165.977
167.723
167.34
167.334
167.338
167.332
167.341
167.335
167.338
167.332
149.532
167.631
149.53
167.632
149.489
167.62
149.487
167.622
167.339
167.334
167.341
167.335