# vtk DataFile Version 3.0
Gravity inversion using rectangular prisms
ASCII
DATASET UNSTRUCTURED_GRID

POINTS	2537	double
100	100	100
100	100	300
100	100	500
100	100	700
100	100	900
100	300	100
100	300	300
100	300	500
100	300	700
100	300	900
100	500	100
100	500	300
100	500	500
100	500	700
100	500	900
100	700	100
100	700	300
100	700	500
100	700	700
100	700	900
100	900	100
100	900	300
100	900	500
100	900	700
100	900	900
100	1100	100
100	1100	300
100	1100	500
100	1100	700
100	1100	900
100	1300	100
100	1300	300
100	1300	500
100	1300	700
100	1300	900
100	1500	100
100	1500	300
100	1500	500
100	1500	700
100	1500	900
100	1700	100
100	1700	300
100	1700	500
100	1700	700
100	1700	900
100	1900	100
100	1900	300
100	1900	500
100	1900	700
100	1900	900
300	100	100
300	100	300
300	100	500
300	100	700
300	100	900
300	300	100
300	300	300
300	300	500
300	300	700
300	300	900
300	500	100
300	500	300
300	500	500
300	500	700
300	500	900
300	700	100
250	650	250
250	650	350
250	750	250
250	750	350
350	650	250
350	650	350
350	750	250
350	750	350
300	700	500
300	700	700
300	700	900
300	900	100
300	900	300
300	900	500
300	900	700
300	900	900
300	1100	100
300	1100	300
300	1100	500
300	1100	700
300	1100	900
300	1300	100
300	1300	300
300	1300	500
300	1300	700
300	1300	900
300	1500	100
300	1500	300
300	1500	500
300	1500	700
300	1500	900
300	1700	100
300	1700	300
300	1700	500
300	1700	700
300	1700	900
300	1900	100
300	1900	300
300	1900	500
300	1900	700
300	1900	900
500	100	100
500	100	300
500	100	500
500	100	700
500	100	900
500	300	100
450	250	250
450	250	350
450	350	250
450	350	350
550	250	250
550	250	350
550	350	250
550	350	350
500	300	500
500	300	700
500	300	900
450	450	50
450	450	150
450	550	50
450	550	150
550	450	50
550	450	150
550	550	50
550	550	150
450	450	250
450	450	350
450	550	250
450	550	350
550	450	250
550	450	350
550	550	250
550	550	350
500	500	500
500	500	700
500	500	900
450	650	50
450	650	150
450	750	50
450	750	150
550	650	50
525	625	125
525	625	175
525	675	125
525	675	175
575	625	125
575	625	175
575	675	125
575	675	175
550	750	50
525	725	125
525	725	175
525	775	125
525	775	175
575	725	125
575	725	175
575	775	125
575	775	175
450	650	250
450	650	350
450	750	250
450	750	350
550	650	250
550	650	350
550	750	250
550	750	350
450	650	450
450	650	550
450	750	450
450	750	550
550	650	450
550	650	550
550	750	450
550	750	550
500	700	700
500	700	900
450	850	50
450	850	150
450	950	50
450	950	150
550	850	50
550	850	150
550	950	50
550	950	150
450	850	250
450	850	350
450	950	250
450	950	350
550	850	250
550	850	350
550	950	250
550	950	350
450	850	450
450	850	550
450	950	450
450	950	550
550	850	450
550	850	550
550	950	450
550	950	550
500	900	700
500	900	900
500	1100	100
450	1050	250
450	1050	350
450	1150	250
450	1150	350
550	1050	250
550	1050	350
550	1150	250
550	1150	350
500	1100	500
500	1100	700
500	1100	900
500	1300	100
500	1300	300
500	1300	500
500	1300	700
500	1300	900
500	1500	100
500	1500	300
500	1500	500
500	1500	700
500	1500	900
500	1700	100
500	1700	300
500	1700	500
500	1700	700
500	1700	900
500	1900	100
500	1900	300
500	1900	500
500	1900	700
500	1900	900
700	100	100
700	100	300
700	100	500
700	100	700
700	100	900
700	300	100
650	250	250
650	250	350
650	350	250
650	350	350
750	250	250
750	250	350
750	350	250
750	350	350
700	300	500
700	300	700
700	300	900
650	450	50
650	450	150
650	550	50
625	525	125
625	525	175
625	575	125
625	575	175
675	525	125
675	525	175
675	575	125
675	575	175
750	450	50
750	450	150
750	550	50
725	525	125
725	525	175
725	575	125
725	575	175
775	525	125
775	525	175
775	575	125
775	575	175
625	425	225
625	425	275
625	475	225
625	475	275
675	425	225
675	425	275
675	475	225
675	475	275
625	425	325
625	425	375
625	475	325
625	475	375
675	425	325
675	425	375
675	475	325
675	475	375
650	550	250
650	550	350
725	425	225
725	425	275
725	475	225
725	475	275
775	425	225
775	425	275
775	475	225
775	475	275
725	425	325
725	425	375
725	475	325
725	475	375
775	425	325
775	425	375
775	475	325
775	475	375
750	550	250
750	550	350
650	450	450
650	450	550
650	550	450
650	550	550
750	450	450
750	450	550
750	550	450
750	550	550
700	500	700
700	500	900
625	625	25
625	625	75
625	675	25
625	675	75
675	625	25
675	625	75
675	675	25
675	675	75
625	625	125
625	625	175
625	675	125
625	675	175
675	625	125
675	625	175
675	675	125
675	675	175
625	725	25
625	725	75
625	775	25
625	775	75
675	725	25
675	725	75
675	775	25
675	775	75
625	725	125
625	725	175
625	775	125
625	775	175
675	725	125
675	725	175
675	775	125
675	775	175
725	625	25
725	625	75
725	675	25
725	675	75
775	625	25
775	625	75
775	675	25
775	675	75
725	625	125
725	625	175
725	675	125
725	675	175
775	625	125
775	625	175
775	675	125
775	675	175
725	725	25
725	725	75
725	775	25
725	775	75
775	725	25
775	725	75
775	775	25
775	775	75
725	725	125
725	725	175
725	775	125
725	775	175
775	725	125
775	725	175
775	775	125
775	775	175
650	650	250
625	625	325
625	625	375
625	675	325
625	675	375
675	625	325
675	625	375
675	675	325
675	675	375
650	750	250
625	725	325
625	725	375
625	775	325
625	775	375
675	725	325
675	725	375
675	775	325
675	775	375
750	650	250
725	625	325
725	625	375
725	675	325
725	675	375
775	625	325
775	625	375
775	675	325
775	675	375
750	750	250
725	725	325
725	725	375
725	775	325
725	775	375
775	725	325
775	725	375
775	775	325
775	775	375
625	625	425
625	625	475
625	675	425
625	675	475
675	625	425
675	625	475
675	675	425
675	675	475
650	650	550
625	725	425
625	725	475
625	775	425
625	775	475
675	725	425
675	725	475
675	775	425
675	775	475
650	750	550
725	625	425
725	625	475
725	675	425
725	675	475
775	625	425
775	625	475
775	675	425
775	675	475
750	650	550
725	725	425
725	725	475
725	775	425
725	775	475
775	725	425
775	725	475
775	775	425
775	775	475
750	750	550
700	700	700
700	700	900
650	850	50
625	825	125
625	825	175
625	875	125
625	875	175
675	825	125
675	825	175
675	875	125
675	875	175
650	950	50
650	950	150
750	850	50
725	825	125
725	825	175
725	875	125
725	875	175
775	825	125
775	825	175
775	875	125
775	875	175
750	950	50
750	950	150
650	850	250
650	850	350
650	950	250
650	950	350
750	850	250
750	850	350
750	950	250
750	950	350
650	850	450
650	850	550
650	950	450
650	950	550
750	850	450
750	850	550
750	950	450
750	950	550
700	900	700
700	900	900
700	1100	100
650	1050	250
650	1050	350
650	1150	250
650	1150	350
750	1050	250
750	1050	350
750	1150	250
750	1150	350
700	1100	500
700	1100	700
700	1100	900
700	1300	100
650	1250	250
650	1250	350
650	1350	250
650	1350	350
750	1250	250
750	1250	350
750	1350	250
750	1350	350
700	1300	500
700	1300	700
700	1300	900
700	1500	100
650	1450	250
650	1450	350
650	1550	250
650	1550	350
750	1450	250
750	1450	350
750	1550	250
750	1550	350
700	1500	500
700	1500	700
700	1500	900
700	1700	100
700	1700	300
700	1700	500
700	1700	700
700	1700	900
700	1900	100
700	1900	300
700	1900	500
700	1900	700
700	1900	900
900	100	100
900	100	300
900	100	500
900	100	700
900	100	900
900	300	100
850	250	250
850	250	350
850	350	250
850	350	350
950	250	250
950	250	350
950	350	250
950	350	350
900	300	500
900	300	700
900	300	900
850	450	50
850	450	150
850	550	50
850	550	150
950	450	50
950	450	150
950	550	50
950	550	150
850	450	250
850	450	350
850	550	250
850	550	350
925	425	225
925	425	275
925	475	225
925	475	275
975	425	225
975	425	275
975	475	225
975	475	275
925	425	325
925	425	375
925	475	325
925	475	375
975	425	325
975	425	375
975	475	325
975	475	375
925	525	225
925	525	275
925	575	225
925	575	275
975	525	225
975	525	275
975	575	225
975	575	275
925	525	325
925	525	375
925	575	325
925	575	375
975	525	325
975	525	375
975	575	325
975	575	375
850	450	450
850	450	550
850	550	450
850	550	550
950	450	450
950	450	550
950	550	450
950	550	550
900	500	700
900	500	900
850	650	50
825	625	125
825	625	175
825	675	125
825	675	175
875	625	125
875	625	175
875	675	125
875	675	175
850	750	50
850	750	150
950	650	50
925	625	125
925	625	175
925	675	125
925	675	175
975	625	125
975	625	175
975	675	125
975	675	175
950	750	50
950	750	150
850	650	250
850	650	350
850	750	250
850	750	350
925	625	225
925	625	275
925	675	225
925	675	275
975	625	225
975	625	275
975	675	225
975	675	275
925	625	325
925	625	375
925	675	325
925	675	375
975	625	325
975	625	375
975	675	325
975	675	375
925	725	225
925	725	275
925	775	225
925	775	275
975	725	225
975	725	275
975	775	225
975	775	275
925	725	325
925	725	375
925	775	325
925	775	375
975	725	325
975	725	375
975	775	325
975	775	375
850	650	450
850	650	550
850	750	450
850	750	550
950	650	450
950	650	550
950	750	450
950	750	550
900	700	700
900	700	900
850	850	50
850	850	150
850	950	50
850	950	150
950	850	50
950	850	150
950	950	50
950	950	150
850	850	250
850	850	350
850	950	250
850	950	350
925	825	225
925	825	275
925	875	225
925	875	275
975	825	225
975	825	275
975	875	225
975	875	275
925	825	325
925	825	375
925	875	325
925	875	375
975	825	325
975	825	375
975	875	325
975	875	375
925	925	225
925	925	275
925	975	225
925	975	275
975	925	225
975	925	275
975	975	225
975	975	275
925	925	325
925	925	375
925	975	325
925	975	375
975	925	325
975	925	375
975	975	325
975	975	375
850	850	450
850	850	550
850	950	450
850	950	550
950	850	450
950	850	550
950	950	450
950	950	550
900	900	700
900	900	900
850	1050	50
850	1050	150
850	1150	50
850	1150	150
950	1050	50
950	1050	150
950	1150	50
950	1150	150
850	1050	250
850	1050	350
850	1150	250
850	1150	350
950	1050	250
950	1050	350
950	1150	250
950	1150	350
900	1100	500
900	1100	700
900	1100	900
850	1250	50
850	1250	150
850	1350	50
850	1350	150
950	1250	50
950	1250	150
950	1350	50
950	1350	150
850	1250	250
850	1250	350
850	1350	250
850	1350	350
925	1225	225
925	1225	275
925	1275	225
925	1275	275
975	1225	225
975	1225	275
975	1275	225
975	1275	275
950	1250	350
925	1325	225
925	1325	275
925	1375	225
925	1375	275
975	1325	225
975	1325	275
975	1375	225
975	1375	275
950	1350	350
850	1250	450
850	1250	550
850	1350	450
850	1350	550
950	1250	450
950	1250	550
950	1350	450
950	1350	550
900	1300	700
900	1300	900
850	1450	50
850	1450	150
850	1550	50
850	1550	150
950	1450	50
950	1450	150
950	1550	50
950	1550	150
850	1450	250
850	1450	350
825	1525	225
[...]
CELL_DATA	2537
SCALARS model double 1
LOOKUP_TABLE table0
0.380445
-1.64082
-1.6442
-1.62112
-2.07297
0.506179
-0.607769
-1.17026
-1.70817
-2.22137
0.250007
-0.214887
-0.760344
-1.76063
-2.25505
0.614742
-4.33786
-4.50762
-2.49903
-3.1771
0.340465
-1.18094
-3.69728
-2.7346
-3.4461
0.0964144
-1.15553
-1.58522
-2.63076
-3.38782
0.185117
-0.492651
-1.71822
-2.56532
-3.3548
0.398757
-1.45172
-1.91321
-2.74948
-3.54136
0.163802
1.13639
-1.45745
-2.5961
-3.36535
-0.0760008
1.56951
-1.37266
-2.59109
-3.33983
0.456448
-0.0399656
-0.909384
-1.39967
-1.85009
0.392139
-4.35055
-2.25958
-1.59149
-2.04497
-0.335127
-1.64491
-1.08266
-1.6652
-2.2272
-0.514351
-0.813049
-1.08674
-0.511956
-1.23434
-0.875144
-1.09125
-0.639114
-1.00273
-1.28945
-2.00451
-2.67276
-1.1154
-0.508942
-0.779363
-1.90212
-2.49601
-1.08145
-0.423737
-1.40557
-1.86541
-2.40546
0.104522
-0.318345
-1.59392
-2.26733
-2.91194
0.0793518
-1.63752
-2.01806
-2.55244
-3.27629
0.309318
-1.52248
-2.13024
-2.60691
-3.33805
0.11236
0.233697
-2.12628
-2.61971
-3.34366
0.43063
-2.73956
-3.93627
2.84626
3.68651
0.958528
-10.3779
-12.1357
-10.7663
-12.5068
-8.53845
-12.8508
-8.49936
-12.9985
-2.22729
7.49947
9.64275
0.37112
-0.287698
2.79171
7.29774
1.92384
5.84043
7.02515
16.4062
44.8617
47.6823
45.2579
48.8471
46.8259
48.6567
48.3514
49.0276
33.6142
9.40816
11.6958
3.13331
8.56139
2.29322
8.56219
17.4296
10.4207
13.3319
10.4228
13.2781
10.534
13.7575
10.5818
13.5917
18.0636
13.0194
15.1656
12.5361
17.9114
13.064
14.7598
12.8215
17.4032
73.0071
78.0568
73.3592
78.1367
84.4594
81.6191
76.9356
81.4927
33.8438
33.7685
33.8467
33.9248
38.6425
34.1187
36.2089
34.2067
9.75597
12.4553
1.91793
4.35868
0.674328
2.14329
11.1352
13.2489
1.71282
7.29694
49.1047
51.7101
43.7946
49.9667
53.1027
53.8573
48.7206
50.1088
34.0995
34.0998
34.0983
34.0124
34.3405
34.5344
34.3373
34.354
9.70028
12.3434
-0.849775
-6.79958
-9.36345
-8.12994
-9.18595
-6.72492
-8.33159
-5.06405
-9.32419
-1.56361
7.29437
9.40203
-0.816476
-5.78936
-0.852195
4.96158
6.413
0.15708
-0.879133
-1.16214
-1.71848
-2.21801
0.242949
-1.855
-2.46174
-2.49838
-3.21377
0.208764
-0.965149
-2.30026
-2.519
-3.20639
0.0246681
-2.08378
-3.56714
2.79343
3.5587
1.43643
2.43947
3.48397
2.37087
3.50294
1.83798
2.72006
2.09131
2.73405
9.30413
9.12398
11.6604
6.25149
21.967
32.1305
25.1138
25.4413
25.12
25.472
25.1187
26.1951
25.1238
26.2089
10.6345
25.4822
38.699
24.2867
26.3459
24.298
26.3522
24.4033
26.2922
24.4063
26.2986
107.041
106.212
107.073
107.461
107.025
107.008
107.072
107.435
107.832
107.379
107.388
107.382
107.378
107.381
107.317
107.384
109.68
108.969
106.923
107.441
106.922
107.442
106.918
107.208
106.917
107.398
107.307
107.382
107.308
107.385
107.266
107.379
107.256
107.383
109.687
109.01
39.4668
38.8799
39.927
39.5124
39.4812
38.8706
39.9503
39.4684
10.662
13.6148
14.6247
26.5102
14.8312
28.5375
15.856
59.9537
15.8523
58.8694
155.236
156.786
155.872
156.789
156.331
156.941
156.89
156.945
15.4596
34.7318
17.6224
44.2298
15.8199
54.4923
17.6281
52.1759
155.908
156.233
155.459
155.935
159.994
157.036
160.755
157.035
18.0921
54.1246
18.4279
55.7892
17.3217
53.4555
17.7099
60.2914
174.722
175.148
174.769
175.154
174.699
175.163
174.705
175.166
19.4153
57.006
19.6512
56.7324
19.6034
58.5508
22.2853
56.0955
165.024
167.343
164.052
166.733
165.052
167.123
164.27
166.836
166.086
162.232
162.234
162.234
162.237
162.235
162.235
162.236
162.237
166.094
162.235
162.238
162.234
162.236
162.237
162.238
162.235
162.237
166.241
162.246
162.228
162.248
162.23
162.243
162.224
162.246
162.226
166.274
162.25
162.232
162.249
162.23
162.247
162.228
162.246
162.226
43.658
44.339
43.7118
44.3876
42.9292
47.4688
42.8665
47.2278
45.1915
44.6657
45.2634
42.7933
45.3847
42.9965
47.0435
43.8872
46.9607
45.1213
42.9573
47.3335
43.0127
47.4418
42.9469
46.9476
43.1969
47.4567
45.7905
44.2555
47.0994
43.1677
46.5039
44.2977
46.9267
44.4992
46.8386
45.8032
13.4675
15.4075
30.7643
25.4058
27.0922
25.348
28.2136
25.5434
27.1712
25.4718
29.7875
8.59821
26.9814
31.2222
21.8986
28.1656
22.0929
29.9395
21.6609
28.5455
22.0484
30.0466
9.06064
27.0488
92.0699
88.8323
74.2067
90.6717
92.8833
90.4222
76.7146
90.2065
45.9624
42.5732
42.2511
42.0062
44.7916
42.3047
42.2553
42.2119
13.1064
15.4949
-2.47881
2.46251
8.01734
1.68251
5.46314
5.61443
9.19425
3.0283
6.41394
16.8906
12.2105
15.6088
-0.739653
7.53849
9.91999
7.58133
11.0127
7.61526
9.7033
7.63924
10.2308
15.853
11.7225
15.0838
-0.356912
6.15487
8.40825
3.01728
5.37882
6.43305
7.30896
4.28635
6.90707
15.8064
10.3492
13.4061
0.440123
-1.00749
0.868972
-2.46792
-3.18558
0.246072
-1.9186
-2.59247
-2.48652
-3.20045
0.124727
-1.16648
0.135074
2.58847
3.35541
0.0429974
1.02185
2.29656
1.36903
2.30689
-0.324495
2.68219
0.151513
2.21661
2.76486
8.91275
11.515
9.6018
19.2839
28.8119
27.7103
-0.00673957
18.5675
12.4324
31.2377
89.7289
87.1078
94.6384
92.0592
85.6693
85.9141
85.7422
85.9284
85.6665
85.9102
85.7204
85.9239
84.6866
84.7903
84.8645
84.8079
84.6826
84.7853
84.8605
84.8018
93.6651
94.0849
95.1498
94.305
93.6602
94.0789
95.143
94.2987
88.1395
88.2098
88.4201
88.4198
88.1354
88.2042
88.4046
88.4138
38.6105
38.5191
38.816
38.9878
38.6039
38.5012
38.784
38.3796
10.6807
13.4128
42.2571
84.511
88.0214
83.4672
89.3214
80.3086
89.5814
80.3184
89.7318
42.3067
93.3459
8.27644
75.6833
76.7
75.6814
76.7039
75.6219
76.5841
75.6205
76.5861
9.18121
74.78
103.779
94.3073
103.655
94.3234
97.4864
98.8656
98.4981
98.8924
97.4704
98.7712
98.2576
98.784
91.9089
91.7293
91.8645
91.7636
91.9032
91.7235
91.856
91.756
98.1079
98.9989
98.2474
97.577
97.9649
98.971
98.2394
97.5714
91.6123
91.7801
91.4344
91.7791
91.5998
91.7719
91.4297
91.7711
46.0004
45.3774
45.3454
45.5264
46.095
45.3229
45.3798
45.1281
13.1035
15.3637
23.8501
28.1978
6.19573
20.0346
7.35301
28.34
-2.56775
18.3105
93.1096
90.656
67.9239
90.8289
94.0608
95.1389
93.7351
94.0815
94.0592
95.1373
93.7339
94.0806
86.87
87.0424
86.8094
86.8307
86.8643
87.0332
86.8023
86.8255
86.034
86.4352
86.0261
86.2651
86.033
86.4335
86.0251
86.1225
84.9673
84.7923
84.6391
84.7467
84.9164
84.7712
84.6335
84.7083
42.6644
42.2431
41.383
42.1747
42.3569
42.1765
41.0121
42.178
12.3963
15.7977
-4.34378
-12.9084
-4.22369
-13.0218
-4.67896
-12.9246
-4.67948
-12.9869
46.1773
47.4855
46.0346
47.4852
46.2656
47.7682
46.252
47.7291
34.6383
12.4189
15.8027
0.523984
16.1832
13.1829
38.7544
11.975
25.9342
33.0121
39.0243
74.3022
79.3247
76.187
79.4093
74.8892
76.7473
74.8953
76.9451
72.9772
78.6189
75.4631
76.9501
78.6727
73.6936
78.3989
74.7798
79.689
75.1222
77.497
75.4493
78.3335
84.3553
40.9167
40.9629
41.2232
40.8163
40.9132
40.939
40.9837
40.8722
12.3637
15.9269
13.3401
38.3548
0.313883
26.4476
25.9299
54.726
17.8293
49.1719
82.5976
81.9143
78.4091
78.7026
78.4054
78.6986
78.4137
78.7126
78.4095
78.7081
81.3969
81.693
81.8844
81.3177
81.9493
81.6574
83.1393
81.3207
82.8227
81.9772
80.3074
82.4402
79.9592
81.474
80.3385
82.9225
79.9677
81.6213
81.0149
81.0599
80.9983
81.0317
81.057
81.0624
81.0281
81.0341
41.3459
40.8924
41.3317
40.929
41.3122
40.8719
40.9994
40.9314
12.4934
16.0506
0.532905
1.71729
3.10706
-0.230637
3.14774
1.3074
4.31999
0.524381
3.2756
1.41131
5.6342
7.22822
0.576857
-5.39548
-0.603169
5.60839
7.2329
0.0648935
-1.86403
-2.52896
-3.4624
-4.57155
0.0404152
-1.60352
-2.20976
-1.39289
-1.94807
-1.45491
-2.0763
-1.37267
-1.74184
-2.71303
-3.25528
-3.87819
-0.123102
-4.61095
1.868
-1.09013
0.468607
-3.0033
-5.99951
-21.9134
-25.3348
-34.3262
-34.9933
-34.349
-34.9923
-34.3444
-35.0907
-34.3465
-35.0946
-22.8198
-26.951
-23.8362
-26.7262
-23.3947
-26.7704
-23.8702
-26.4589
-34.2015
-34.9931
-34.0367
-35.5993
-34.2241
-35.8613
-34.3276
-36.9435
-36.0526
-37.485
-35.0273
-37.1645
-18.7307
-19.2687
-18.6849
-19.1184
-18.6901
-19.5049
-18.6629
-19.5043
-3.29189
-4.16298
-0.410213
-3.36963
-4.79202
-3.3869
-4.9231
-3.01786
-4.88149
-3.02124
-4.88311
-1.67041
1.53608
-10.003
-78.4181
-78.8267
-78.0989
-78.8581
-78.4686
-79.3879
-78.4826
-79.3844
-15.0293
-36.2884
-37.4955
-36.2895
-37.4921
-36.9004
-37.6139
-36.843
-37.5173
-32.1801
-34.6725
-29.7967
-34.3846
-32.3834
-34.2255
-31.1085
-34.1012
-38.4763
-38.0324
-39.0145
-38.1191
-39.1766
-37.8929
-39.0511
-38.2305
-28.534
-31.5786
-27.8755
-31.7747
-28.5264
-32.4943
-27.6154
-31.2831
-36.5389
-38.1814
-36.7941
-37.7821
-37.8014
-38.2135
-37.0428
-38.1913
-51.8351
-51.7267
-51.844
-51.7257
-51.8537
-51.7683
-51.8528
-51.7676
-44.7748
-44.8763
-44.7759
-44.8788
-44.9839
-44.9102
-44.9842
-44.9124
-49.2422
-50.2728
-49.2373
-50.2674
-49.4638
-50.3068
-49.3522
-50.3017
-44.772
-44.885
-44.7689
-44.8815
-44.9824
-44.919
-44.9799
-44.9151
-17.4271
-16.4895
-15.3728
-16.6936
-17.6105
-16.5301
-16.1718
-16.5205
-2.15941
-3.54568
-1.97098
-10.5512
-5.75973
-14.4739
-8.87155
-29.6537
-3.52607
-17.882
-17.8428
-24.9076
-15.9187
-17.763
-15.9139
-17.7554
-15.9456
-17.7827
-15.9407
-17.7748
-23.4351
-25.7222
-23.4326
-25.7197
-23.4731
-25.4686
-23.4597
-25.4536
-39.638
-32.3959
-29.9712
-34.7957
-29.9656
-34.7878
-30.0635
-36.6952
-29.8773
-36.3066
-30.7008
-30.6833
-30.6989
-30.6812
-30.7196
-30.7204
-30.7177
-30.7181
-7.14756
-6.80286
-7.14053
-6.63902
-7.1767
-7.02492
-7.16995
-6.9394
2.1141
4.34556
-4.67891
-15.2971
-3.8121
-11.5925
-3.26688
-9.14381
-1.67777
-6.2112
51.3939
56.9489
57.1925
55.7272
57.3062
56.8277
57.1894
57.5044
57.3044
57.6543
61.242
59.7098
60.0892
59.7172
59.6134
59.7741
59.7971
59.8522
50.424
56.7246
57.1879
57.5888
57.2019
57.6483
57.1881
57.5876
57.1911
57.6369
59.5917
59.7725
59.7883
59.8518
59.5665
59.7711
59.7537
59.8498
20.8398
21.4549
21.5656
21.4645
19.743
21.2509
21.5585
21.255
12.4273
15.9763
17.4697
57.8631
57.1344
60.0082
57.1508
57.8698
58.8909
59.9339
58.9366
34.8267
65.687
72.3131
71.5975
72.058
56.4619
81.6182
71.6108
73.8764
17.498
58.6536
60.316
59.1818
61.1272
58.6865
61.7176
59.1896
61.725
36.007
84.5853
174.39
174.639
174.43
175.009
174.398
174.694
174.416
175.028
176.5
176.469
176.719
176.739
176.498
176.471
176.712
176.74
177.234
177.879
177.76
178.222
177.24
177.885
177.759
178.305
182.664
182.292
183.038
182.557
182.663
182.34
183.036
182.566
174.447
174.998
174.448
175.044
174.463
174.999
174.464
175.031
176.486
176.469
176.597
176.741
176.481
176.424
176.583
176.687
180.497
182.149
182.391
182.385
182.643
182.023
182.402
182.381
182.644
40.531
40.7167
40.5592
40.7597
40.4984
40.6642
40.5319
40.7448
40.9047
40.6741
40.9548
40.6751
41.418
40.5688
40.9267
40.5919
41.4144
40.9413
40.4375
40.7234
40.4603
40.9693
40.4177
40.869
40.4535
41.2584
40.9114
40.3499
40.994
40.3207
42.732
40.2816
42.8847
40.2087
42.7926
40.9321
12.4848
15.9661
35.3639
90.1902
87.6817
90.1847
87.7113
89.6342
86.8296
89.6124
87.7558
11.2735
65.2473
66.7602
64.7434
66.4031
65.2579
66.904
64.8162
66.5164
36.2511
94.1066
19.5398
74.6219
77.5755
74.601
77.5602
77.0267
77.5473
77.183
77.5024
187.71
188.101
187.709
188.1
187.71
188.107
187.71
188.106
182.984
183.13
182.946
184.317
182.986
183.11
182.957
184.125
185.357
186.033
185.337
186.021
185.409
186.035
185.388
186.015
185.537
184.268
185.527
185.093
185.619
185.146
185.62
185.554
188.211
182.926
183.065
182.943
183.94
182.922
182.6
182.965
183.224
185.725
186.015
185.722
185.938
185.726
185.897
185.723
185.851
185.726
185.264
185.726
185.703
185.722
185.451
185.722
185.72
40.5602
41.6601
40.43
41.8573
40.0695
41.4582
39.7672
42.4886
40.9321
39.4453
41.9464
39.4243
41.9906
38.6998
42.6568
38.7291
43.1127
41.0537
39.7312
42.8136
39.5161
43.0731
39.6731
42.777
39.3875
42.3158
40.9486
38.5743
43.1414
38.6146
43.3638
39.0475
43.7628
39.006
43.4871
40.9529
12.4994
15.837
0.58921
3.34481
-0.162786
0.387311
0.592897
3.34401
0.23484
0.399577
25.6524
31.2328
26.8426
28.6723
25.4849
30.8536
26.8184
28.6737
26.6173
27.4614
25.8801
28.418
26.0506
27.4653
25.9094
28.2169
18.0128
26.169
25.5834
29.4634
25.6293
29.4563
26.2619
29.073
26.1939
29.08
25.7856
28.4087
26.1725
28.8949
27.4449
28.4651
26.7794
29.629
18.057
26.807
36.0553
38.6432
37.4766
38.0527
34.9025
40.7081
37.3677
38.2307
5.63317
7.24211
0.204014
-9.77656
-2.21521
5.61932
7.24115
-0.108534
-0.299144
-2.30929
-3.48817
-4.3291
-0.44961
0.651165
1.62339
0.552788
-0.947204
0.715101
1.33945
0.595817
0.827695
-0.0609402
0.361864
0.0129566
0.711092
-0.0890978
0.711542
0.125095
-1.52675
-3.59356
-4.59533
-0.789033
-41.1298
-44.0417
-38.0013
-44.4186
-41.165
-44.1588
-38.3701
-44.4225
-10.3633
-94.6908
-95.6329
-95.315
-96.0686
-94.7001
-95.6329
-95.3123
-96.0687
-7.89085
-46.119
-24.3314
-78.5377
-115.004
-115.529
-115.023
-115.869
-115.001
-115.524
-114.959
-115.867
-112.926
-112.579
-113.458
-112.946
-112.883
-112.584
-112.913
-112.946
-122.577
-114.445
-115.564
-115.414
-115.891
-115.037
-115.675
-115.392
-115.962
-114.402
-115.095
-114.354
-114.977
-114.317
-114.632
-114.324
-114.97
-112.644
-112.614
-112.689
-112.629
-112.604
-112.615
-112.607
-112.625
-121.91
-115.166
-57.3212
-57.2739
-57.2935
-57.2748
-57.3666
-56.6208
-57.2549
-56.6193
-10.3123
-11.2171
-29.3993
-123.884
-125.248
-123.898
-125.255
-123.891
-125.259
-123.887
-125.272
-31.2859
-124.137
-125.377
-124.155
-125.359
-123.156
-125.379
-123.949
-125.362
-38.9684
-116.009
-32.1383
-114.254
-112.859
-112.89
-112.856
-111.808
-112.852
-111.816
-112.85
-186.304
-186.691
-186.302
-186.693
-186.303
-186.703
-186.302
-186.705
-184.565
-184.514
-182.048
-186.939
-184.681
-184.619
-184.765
-184.723
-186.318
-186.693
-186.31
-186.692
-186.312
-186.707
-186.319
-186.706
-184.644
-184.692
-184.585
-184.593
-184.811
-184.708
-184.742
-184.646
-183.999
-184.595
-184.625
-184.646
-184.701
-183.927
-184.531
-184.018
-184.539
-185.008
-184.64
-184.685
-184.636
-184.643
-184.191
-184.54
-184.228
-184.537
-40.107
-40.6043
-39.0327
-42.3905
-40.172
-41.2855
-39.4588
-42.282
-39.5957
-38.8005
-42.765
-39.8069
-41.8399
-39.5156
-42.6404
-40.7927
-42.3846
-39.4749
-41.1355
-41.5504
-39.3673
-43.7135
-41.1434
-41.629
-38.9115
-43.6973
-39.6439
-39.5971
-42.5498
-39.6445
-42.1644
-39.2844
-43.0067
-39.8155
-42.1705
-39.5448
-11.9281
-10.5282
-13.0999
-97.0906
-97.5403
-96.4884
-96.8884
-97.0875
-97.2885
-96.4861
-97.0284
-1.5493
-58.9837
-70.5378
-52.993
-74.13
-62.0944
-66.8545
-61.9971
-66.8896
-21.9556
-61.2587
0.0876136
-61.5079
-117.653
-116.09
-116.158
-115.021
-116.019
-115.42
-116.352
-114.059
-116.073
-116.628
-117.147
-116.627
-117.056
-116.703
-117.175
-116.641
-116.988
-113.336
-112.405
-112.228
-112.217
-114.291
-112.428
-112.43
-112.228
-117.883
-116.427
-116.574
-116.79
-116.535
-116.166
-116.523
-114.988
-116.515
-108.869
-112.572
-112.394
-112.613
-112.226
-112.383
-112.329
-112.262
-112.167
-29.8108
-27.6854
-29.3428
-27.3749
-29.7656
-27.7305
-29.7283
-27.6366
-8.39743
-9.54671
0.103521
0.677284
1.27334
2.29891
0.0923535
1.67632
0.872018
2.34971
19.3741
22.9
19.8422
22.916
19.207
23.724
18.7606
23.5219
29.0255
31.8428
29.9469
32.1202
29.001
31.8848
29.9292
32.5978
25.4258
32.4088
18.7258
23.4932
18.7308
23.3743
18.9007
23.5619
18.0596
23.5389
28.3576
33.1923
28.2909
33.1997
27.1874
32.5648
28.2753
34.1568
33.4531
31.7991
19.5915
19.2142
19.7919
19.8574
19.7623
19.1815
19.7658
19.2741
11.8621
15.8212
17.9292
83.3017
37.9456
90.0875
18.0968
80.565
82.4967
80.6827
82.5364
80.6989
82.5121
80.5986
82.5562
38.8483
102.754
135.543
136.234
135.544
136.367
136.407
137.615
135.624
137.27
139.115
139.259
139.115
139.314
139.112
139.252
139.112
139.258
149.566
145.535
137.702
136.91
137.715
137.348
138.285
138.883
138.258
138.895
139.18
139.176
139.213
139.257
139.175
139.162
139.214
139.253
149.159
144.162
144.335
144.189
144.345
144.153
144.305
144.186
144.311
41.0175
40.9545
40.6617
40.9706
42.2521
40.9199
42.2904
41.0922
11.91
15.2533
36.8277
90.2169
21.7029
77.6986
93.8934
78.5991
92.1289
83.351
91.1752
78.6925
98.0118
38.8779
101.83
16.426
85.582
90.7166
79.4967
91.3895
83.1537
94.4207
87.518
91.276
149.249
145.455
147.128
148.175
147.121
148.171
147.163
147.131
147.16
147.128
144.11
144.407
144.034
144.401
144.118
143.88
144.108
143.802
152.594
144.179
144.344
144.177
144.337
144.163
144.311
144.12
144.307
146.292
147.292
146.286
147.046
146.23
147.304
146.224
147.299
144.149
143.963
144.145
143.947
144.161
143.986
143.657
144.002
40.5649
40.9847
40.4972
40.8955
42.5668
41.3477
42.5564
41.3631
12.3777
17.3282
0.315821
2.79102
0.225071
0.182813
0.300839
2.82906
-0.121295
-0.330267
24.9403
29.4305
25.5891
29.4017
24.8787
29.4282
25.5376
29.2383
28.1249
32.9785
28.8148
30.3954
29.0375
30.7157
29.1378
30.2801
18.1307
26.9829
21.7909
26.9637
21.7644
26.8805
22.1654
27.0341
22.0175
26.3627
32.719
18.1534
26.921
38.4611
42.2481
42.3343
42.8518
42.4704
42.8916
42.5159
42.8642
5.62041
7.23436
0.168408
-9.69656
-2.52151
5.59235
7.17202
-0.110399
-0.101628
0.168916
-3.47999
-4.47393
-0.50869
-0.204194
-0.479288
-0.138285
-0.00660878
-0.604447
-0.546367
-0.601146
-0.696547
-0.314099
-3.59007
-4.62606
-6.24448
-11.9191
-19.4296
-11.2776
-14.5024
-11.2933
-14.7673
-11.2745
-14.5029
-11.2788
-14.5077
-4.29766
-12.9035
-13.5639
-22.7386
-70.4582
-73.6969
-76.4622
-76.9848
-76.7456
-77.0954
-75.6404
-76.9897
-76.0097
-76.7805
-73.0257
-73.0832
-72.9573
-73.058
-73.0219
-73.0843
-72.9582
-73.0607
-66.8842
-71.0194
-72.7817
-72.8802
-72.9485
-73.5014
-72.4342
-72.6007
-72.4389
-72.7358
-72.9231
-72.9566
-73.0963
-73.168
-72.8901
-72.877
-73.0329
-73.0171
-51.4997
-52.0909
-51.4964
-52.0922
-51.2208
-51.2184
-51.224
-51.1946
-10.2727
-10.3165
-38.9709
-107.578
-108.514
-107.607
-108.831
-107.486
-108.507
-107.489
-108.618
-31.417
-108.044
-109.419
-107.72
-109.596
-107.647
-109.345
-107.69
-109.154
-8.78335
-55.9609
-58.2643
-55.8946
-58.4628
-56.0682
-57.7278
-55.4959
-57.7208
-5.95819
-50.8411
-61.3848
-55.354
-58.0494
-55.1444
-57.8504
-54.4432
-57.9074
-180.227
-180.718
-180.24
-180.75
-180.211
-180.597
-180.227
-180.736
-183.632
-182.963
-183.149
-183.062
-182.754
-181.777
-183.027
-181.765
-180.477
-183.135
-183.065
-183.116
-183.016
-183.027
-181.8
-183.026
-181.781
-179.489
-179.881
-179.485
-179.883
-179.479
-179.875
-179.48
-179.876
-180.988
-182.08
-180.992
-181.692
-180.711
-180.764
-180.802
-180.92
-179.281
-179.852
-179.275
-179.733
-179.278
-179.82
-179.273
-179.727
-180.992
-182.074
-180.988
-181.953
-180.802
-180.846
-180.702
-180.723
-40.6729
-41.7692
-38.8959
-43.6318
-40.8029
-41.3505
-40.7249
-41.3829
-39.661
-39.0605
-43.0754
-38.5042
-42.5997
-40.6776
-41.6049
-38.3305
-42.4575
-39.5442
-40.804
-41.1768
-40.7612
-40.9633
-40.706
-41.1639
-40.7337
-40.927
-39.3517
-40.6636
-41.1886
-40.3434
-41.6645
-40.592
-41.1677
-38.7838
-41.9698
-39.0727
-11.8892
-10.4325
-19.0992
-58.0607
-0.793363
-33.1699
-4.59287
-30.4058
-1.17362
-3.76056
-97.9891
-95.3143
-96.5225
-98.7862
-96.5555
-105.583
-96.3818
-97.0259
-96.2264
-96.8942
-95.4936
-90.2849
-95.9832
-90.4792
-93.4545
-89.7995
-95.296
-92.1048
-92.4157
-95.3945
-95.5711
-95.1385
-95.2646
-95.3961
-95.5717
-95.1399
-95.2661
-80.3487
-101.822
-91.5115
-92.5123
-91.4369
-92.4807
-91.4675
-91.939
-93.1937
-93.013
-92.7693
-92.9443
-93.1906
-93.0106
-92.7667
-92.9328
-40.2374
-38.3307
-38.071
-38.2995
-39.7129
-38.3332
-38.1258
-38.302
-8.3249
-10.3449
1.12372
6.09149
5.58843
9.79025
7.7905
3.63822
5.67039
11.3471
8.8077
8.95147
8.96233
9.49348
9.09183
8.40808
8.99726
9.57496
9.07986
6.83728
5.18816
13.6297
35.9205
37.0343
35.9408
5.11218
38.0487
12.3363
38.1118
89.1535
85.5288
88.8941
85.3152
86.5571
86.9889
86.5492
86.9952
86.5557
86.9869
86.5479
86.9932
83.8329
87.2601
83.8004
43.1537
42.9194
43.9684
43.1816
42.4972
43.4885
43.9735
43.1782
11.5636
15.0745
39.0699
35.0578
14.9035
35.2218
15.0058
35.6168
7.0038
27.9613
88.2297
85.2332
81.9858
81.9109
85.285
82.7392
79.8601
79.6223
47.387
47.7541
47.7576
47.7561
47.3957
47.7358
47.7995
47.7407
10.9245
13.9738
0.938727
16.3629
16.2758
13.8372
15.4323
14.9453
16.3341
13.247
15.0404
21.9041
5.35621
6.96987
0.823996
-12.7778
-3.41219
5.26985
6.93812
0.0357252
-1.1337
-0.947563
1.80899
2.34452
-0.24223
-0.385629
1.15884
1.78649
2.33717
-1.11785
-1.40876
-1.8967
-5.47705
-5.87487
-0.711725
-1.83344
-0.930897
-1.78311
-3.34176
-5.72896
-7.18145
-1.95186
-7.06471
-1.98262
-7.20516
-0.162552