# vtk DataFile Version 3.0
Gravity inversion using rectangular prisms
ASCII
DATASET UNSTRUCTURED_GRID

POINTS	3839	double
0	0	0
0	0	200
0	0	400
0	0	600
0	0	800
0	0	1000
0	200	0
0	200	200
0	200	400
0	200	600
0	200	800
0	200	1000
0	400	0
0	400	200
0	400	400
0	400	600
0	400	800
0	400	1000
0	600	0
0	600	200
0	600	400
0	600	600
0	600	800
0	600	1000
0	800	0
0	800	200
0	800	400
0	800	600
0	800	800
0	800	1000
0	1000	0
0	1000	200
0	1000	400
0	1000	600
0	1000	800
0	1000	1000
0	1200	0
0	1200	200
0	1200	400
0	1200	600
0	1200	800
0	1200	1000
0	1400	0
0	1400	200
0	1400	400
0	1400	600
0	1400	800
0	1400	1000
0	1600	0
0	1600	200
0	1600	400
0	1600	600
0	1600	800
0	1600	1000
0	1800	0
0	1800	200
0	1800	400
0	1800	600
0	1800	800
0	1800	1000
0	2000	0
0	2000	200
0	2000	400
0	2000	600
0	2000	800
0	2000	1000
200	0	0
200	0	200
200	0	400
200	0	600
200	0	800
200	0	1000
200	200	0
200	200	200
200	200	400
200	200	600
200	200	800
200	200	1000
200	400	0
200	400	200
200	400	400
200	400	600
200	400	800
200	400	1000
200	600	0
200	600	200
200	600	300
200	600	400
200	600	600
200	600	800
200	600	1000
200	700	200
200	700	300
200	700	400
200	800	0
200	800	200
200	800	300
200	800	400
200	800	600
200	800	800
200	800	1000
200	1000	0
200	1000	200
200	1000	400
200	1000	600
200	1000	800
200	1000	1000
200	1200	0
200	1200	200
200	1200	400
200	1200	600
200	1200	800
200	1200	1000
200	1400	0
200	1400	200
200	1400	400
200	1400	600
200	1400	800
200	1400	1000
200	1600	0
200	1600	200
200	1600	400
200	1600	600
200	1600	800
200	1600	1000
200	1800	0
200	1800	200
200	1800	400
200	1800	600
200	1800	800
200	1800	1000
200	2000	0
200	2000	200
200	2000	400
200	2000	600
200	2000	800
200	2000	1000
300	600	200
300	600	300
300	600	400
300	700	200
300	700	300
300	700	400
300	800	200
300	800	300
300	800	400
400	0	0
400	0	200
400	0	400
400	0	600
400	0	800
400	0	1000
400	200	0
400	200	200
400	200	400
400	200	600
400	200	800
400	200	1000
400	400	0
400	400	200
400	400	300
400	400	400
400	400	600
400	400	800
400	400	1000
400	500	200
400	500	300
400	500	400
400	600	0
400	600	100
400	600	200
400	600	300
400	600	400
400	600	600
400	600	800
400	600	1000
400	700	0
400	700	100
400	700	200
400	700	300
400	700	400
400	800	0
400	800	100
400	800	200
400	800	300
400	800	400
400	800	600
400	800	800
400	800	1000
400	900	200
400	900	300
400	900	400
400	1000	0
400	1000	200
400	1000	300
400	1000	400
400	1000	600
400	1000	800
400	1000	1000
400	1200	0
400	1200	200
400	1200	400
400	1200	600
400	1200	800
400	1200	1000
400	1400	0
400	1400	200
400	1400	400
400	1400	600
400	1400	800
400	1400	1000
400	1600	0
400	1600	200
400	1600	400
400	1600	600
400	1600	800
400	1600	1000
400	1800	0
400	1800	200
400	1800	400
400	1800	600
400	1800	800
400	1800	1000
400	2000	0
400	2000	200
400	2000	400
400	2000	600
400	2000	800
400	2000	1000
500	400	200
500	400	300
500	400	400
500	500	200
500	500	300
500	500	400
500	600	0
500	600	100
500	600	200
500	600	300
500	600	400
500	700	0
500	700	100
500	700	200
500	700	300
500	700	400
500	800	0
500	800	100
500	800	200
500	800	300
500	800	400
500	900	200
500	900	300
500	900	400
500	1000	200
500	1000	300
500	1000	400
600	0	0
600	0	200
600	0	400
600	0	600
600	0	800
600	0	1000
600	200	0
600	200	200
600	200	300
600	200	400
600	200	600
600	200	800
600	200	1000
600	300	200
600	300	300
600	300	400
600	400	0
600	400	100
600	400	200
600	400	250
600	400	300
600	400	350
600	400	400
600	400	500
600	400	600
600	400	800
600	400	1000
600	450	200
600	450	250
600	450	300
600	450	350
600	450	400
600	500	0
600	500	100
600	500	200
600	500	250
600	500	300
600	500	350
600	500	400
600	500	500
600	500	600
600	600	0
600	600	100
600	600	200
600	600	300
600	600	350
600	600	400
600	600	500
600	600	600
600	600	800
600	600	1000
600	650	300
600	650	350
600	650	400
600	700	0
600	700	100
600	700	200
600	700	300
600	700	350
600	700	400
600	700	500
600	700	600
600	750	300
600	750	350
600	750	400
600	800	0
600	800	100
600	800	200
600	800	300
600	800	350
600	800	400
600	800	500
600	800	600
600	800	800
600	800	1000
600	900	0
600	900	100
600	900	200
600	900	250
600	900	300
600	900	400
600	900	500
600	900	600
600	950	200
600	950	250
600	950	300
600	1000	0
600	1000	100
600	1000	200
600	1000	250
600	1000	300
600	1000	400
600	1000	500
600	1000	600
600	1000	800
600	1000	1000
600	1100	200
600	1100	300
600	1100	400
600	1200	0
600	1200	200
600	1200	300
600	1200	400
600	1200	600
600	1200	800
600	1200	1000
600	1300	200
600	1300	300
600	1300	400
600	1400	0
600	1400	200
600	1400	300
600	1400	400
600	1400	600
600	1400	800
600	1400	1000
600	1500	200
600	1500	300
600	1500	400
600	1600	0
600	1600	200
600	1600	300
600	1600	400
600	1600	600
600	1600	800
600	1600	1000
600	1800	0
600	1800	200
600	1800	400
600	1800	600
600	1800	800
600	1800	1000
600	2000	0
600	2000	200
600	2000	400
600	2000	600
600	2000	800
600	2000	1000
650	400	200
650	400	250
650	400	300
650	400	350
650	400	400
650	450	200
650	450	250
650	450	300
650	450	350
650	450	400
650	500	200
650	500	250
650	500	300
650	500	350
650	500	400
650	600	300
650	600	350
650	600	400
650	650	300
650	650	350
650	650	400
650	700	300
650	700	350
650	700	400
650	750	300
650	750	350
650	750	400
650	800	300
650	800	350
650	800	400
650	900	200
650	900	250
650	900	300
650	950	200
650	950	250
650	950	300
650	1000	200
650	1000	250
650	1000	300
700	200	200
700	200	300
700	200	400
700	300	200
700	300	300
700	300	400
700	400	0
700	400	100
700	400	200
700	400	250
700	400	300
700	400	350
700	400	400
700	400	500
700	400	600
700	450	200
700	450	250
700	450	300
700	450	350
700	450	400
700	500	0
700	500	100
700	500	200
700	500	250
700	500	300
700	500	350
700	500	400
700	500	500
700	500	600
700	600	0
700	600	100
700	600	200
700	600	300
700	600	350
700	600	400
700	600	500
700	600	600
700	650	300
700	650	350
700	650	400
700	700	0
700	700	100
700	700	200
700	700	300
700	700	350
700	700	400
700	700	500
700	700	600
700	750	300
700	750	350
700	750	400
700	800	0
700	800	100
700	800	200
700	800	300
700	800	350
700	800	400
700	800	500
700	800	600
700	900	0
700	900	100
700	900	200
700	900	250
700	900	300
700	900	400
700	900	500
700	900	600
700	950	200
700	950	250
700	950	300
700	1000	0
700	1000	100
700	1000	200
700	1000	250
700	1000	300
700	1000	400
700	1000	500
700	1000	600
700	1100	200
700	1100	300
700	1100	400
700	1200	200
700	1200	300
700	1200	400
700	1300	200
700	1300	300
700	1300	400
700	1400	200
700	1400	300
700	1400	400
700	1500	200
700	1500	300
700	1500	400
700	1600	200
700	1600	300
700	1600	400
750	400	200
750	400	250
750	400	300
750	450	200
750	450	250
750	450	300
750	500	200
750	500	250
750	500	300
800	0	0
800	0	200
800	0	400
800	0	600
800	0	800
800	0	1000
800	200	0
800	200	200
800	200	300
800	200	400
800	200	600
800	200	800
800	200	1000
800	300	200
800	300	300
800	300	400
800	400	0
800	400	100
800	400	200
800	400	250
800	400	300
800	400	400
800	400	500
800	400	600
800	400	800
800	400	1000
800	450	200
800	450	250
800	450	300
800	500	0
800	500	100
800	500	200
800	500	250
800	500	300
800	500	400
800	500	500
800	500	600
800	600	0
800	600	100
800	600	200
800	600	300
800	600	400
800	600	500
800	600	600
800	600	800
800	600	1000
800	700	0
800	700	100
800	700	200
800	700	300
800	700	400
800	700	500
800	700	600
800	800	0
800	800	100
800	800	200
800	800	300
800	800	400
800	800	500
800	800	600
800	800	800
800	800	1000
800	900	0
800	900	100
800	900	200
800	900	300
800	900	400
800	900	500
800	900	600
800	1000	0
800	1000	100
800	1000	200
800	1000	300
800	1000	400
800	1000	500
800	1000	600
800	1000	800
800	1000	1000
800	1100	200
800	1100	300
800	1100	400
800	1200	0
800	1200	100
800	1200	200
800	1200	300
800	1200	400
800	1200	500
800	1200	600
800	1200	800
800	1200	1000
800	1300	0
800	1300	100
800	1300	200
800	1300	300
800	1300	400
800	1300	500
800	1300	600
800	1400	0
800	1400	100
800	1400	200
800	1400	250
800	1400	300
800	1400	350
800	1400	400
800	1400	500
800	1400	600
800	1400	800
800	1400	1000
800	1450	200
800	1450	250
800	1450	300
800	1450	350
800	1450	400
800	1500	0
800	1500	100
800	1500	200
800	1500	250
800	1500	300
800	1500	350
800	1500	400
800	1500	500
800	1500	600
800	1550	200
800	1550	250
800	1550	300
800	1550	350
800	1550	400
800	1600	0
800	1600	100
800	1600	200
800	1600	250
800	1600	300
800	1600	350
800	1600	400
800	1600	500
800	1600	600
800	1600	800
800	1600	1000
800	1700	200
800	1700	300
800	1700	400
800	1700	500
800	1700	600
800	1800	0
800	1800	200
800	1800	300
800	1800	400
800	1800	500
800	1800	600
800	1800	800
800	1800	1000
800	2000	0
800	2000	200
800	2000	400
800	2000	600
800	2000	800
800	2000	1000
850	400	200
850	400	250
850	400	300
850	450	200
850	450	250
850	450	300
850	500	200
850	500	250
850	500	300
850	1400	200
850	1400	250
850	1400	300
850	1400	350
850	1400	400
850	1450	200
850	1450	250
850	1450	300
850	1450	350
850	1450	400
850	1500	200
850	1500	250
850	1500	300
850	1500	350
850	1500	400
850	1550	200
850	1550	250
850	1550	300
850	1550	350
850	1550	400
850	1600	200
850	1600	250
850	1600	300
850	1600	350
850	1600	400
900	200	200
900	200	300
900	200	400
900	300	200
900	300	300
900	300	400
900	400	0
900	400	100
900	400	200
900	400	250
900	400	300
900	400	350
900	400	400
900	400	500
900	400	600
900	450	200
900	450	250
900	450	300
900	450	350
900	450	400
900	500	0
900	500	100
900	500	150
900	500	200
900	500	250
900	500	300
900	500	350
900	500	400
900	500	500
900	500	600
900	550	100
900	550	150
900	550	200
900	550	250
900	550	300
900	550	350
900	550	400
900	600	0
900	600	100
900	600	150
900	600	200
900	600	250
900	600	300
900	600	350
900	600	400
900	600	500
900	600	600
900	650	100
900	650	150
900	650	200
900	650	250
900	650	300
900	650	350
900	650	400
900	700	0
900	700	100
900	700	150
900	700	200
900	700	250
900	700	300
900	700	350
900	700	400
900	700	500
900	700	600
900	750	100
900	750	150
900	750	200
900	750	250
900	750	300
900	750	350
900	750	400
900	800	0
900	800	100
900	800	150
900	800	200
900	800	250
900	800	300
900	800	350
900	800	400
900	800	500
900	800	600
900	850	200
900	850	250
900	850	300
900	900	0
900	900	100
900	900	200
900	900	250
900	900	300
900	900	400
900	900	500
900	900	600
900	950	200
[...]
CELL_DATA	2579
SCALARS model double 1
LOOKUP_TABLE table0
0.287279
-0.401339
-2.08711
-2.48168
-3.00516
0.4132
-0.741604
-1.72313
-2.50563
-3.06043
0.162156
-0.614017
-1.35297
-2.35539
-3.12233
0.659933
-3.16698
-2.6745
-2.18174
-2.66435
0.551137
-1.93919
-2.54617
-2.77249
-3.56264
0.370689
-1.35094
-2.25712
-1.44317
-1.84148
0.265406
-0.635179
-1.85077
-2.16746
-2.77162
0.255741
-0.859987
-1.68018
-2.61465
-3.39598
0.0314008
0.610616
0.690646
-2.55305
-3.42006
-0.134849
1.12715
0.985732
-2.50768
-3.41004
0.0974974
-0.770423
-3.05277
-2.92838
-3.4666
-0.157577
-1.10727
-1.46438
-2.32935
-2.89179
0.132058
-1.28645
0.142315
-0.70024
-1.19834
-0.023595
0.460391
0.645931
0.49871
0.644749
0.428561
0.608062
0.43845
0.611332
0.540077
-0.787978
-0.987479
-0.252868
-1.31705
-2.50545
0.394194
0.563017
-0.680127
-1.90761
-2.21039
-1.14938
-1.44502
0.0965747
-0.45785
-1.75527
-1.61296
-1.83806
-0.139842
-0.725948
-1.72233
-2.54249
-3.34814
0.0164514
-0.36921
-1.39328
-2.54575
-3.31742
-0.00162911
-0.0746236
-0.402252
-2.53955
-3.36513
-0.0841323
-0.226263
-3.06643
2.66827
3.44535
0.230208
0.00839212
-1.65608
7.27694
9.62798
4.28269
24.6416
39.1342
25.9186
38.7357
29.881
38.2842
28.8533
44.0628
35.8739
9.79314
12.5504
2.91159
21.3003
2.97259
21.2886
18.5717
52.7259
18.5746
52.7422
65.1581
69.9034
65.1456
69.9055
72.1289
70.033
72.1143
70.0758
36.3718
10.801
12.2532
4.84058
31.0268
42.6535
28.703
41.4758
34.7471
42.5747
34.7931
42.2486
35.1891
8.39464
10.8734
-0.820835
-1.97634
-1.82983
-0.220531
0.318749
-0.981975
-1.90522
-0.305944
-0.94716
1.2453
0.120444
-0.340331
-0.959955
-1.78765
-2.25826
0.044945
-0.298519
-1.88505
-2.61911
-3.40901
0.0121243
0.0117017
-1.74071
-2.61757
-3.35215
-0.190414
-0.487298
-3.97558
3.41734
4.15894
1.57332
-0.523201
-0.484391
0.170839
-0.505998
-0.393094
-0.274348
-0.348571
-0.66261
-1.14894
9.46232
12.6022
8.13767
26.855
40.8019
38.0513
8.18287
27.6613
41.1343
38.3076
101.515
102.074
101.516
102.079
101.492
102.078
101.495
102.084
93.9935
111.773
93.9985
111.777
94.0242
111.773
94.03
111.778
114.098
107.4
101.13
103.732
101.132
103.743
102.087
103.738
102.375
103.748
104.284
114.485
107.199
47.5256
43.7805
46.9491
44.1366
47.2955
45.6008
47.0784
45.5189
11.9707
15.343
39.8155
103.938
49.0041
96.7979
45.7814
97.2189
51.7084
92.5499
150.102
144.444
146.906
145.766
146.829
144.372
148.429
145.761
146.863
150.116
146.176
146.453
146.064
146.399
146.176
146.461
146.064
146.406
149.492
147.88
149.532
147.885
46.5339
44.6362
46.4646
44.8094
46.9047
44.6413
46.6806
44.6047
13.5331
15.1122
30.0602
46.8865
8.10209
31.839
28.9914
53.6848
7.82472
31.2521
95.8217
96.441
93.4212
95.104
93.4093
95.081
93.4192
95.0938
93.4088
95.0848
95.7347
91.1882
96.4165
76.7182
105.677
39.2332
44.8755
38.8161
45.2288
39.7392
44.3142
39.3751
45.0766
12.5077
16.0299
-3.13822
-0.400241
-0.546542
-0.642969
-0.578728
-0.41265
-0.507424
-0.630158
-0.587185
23.6429
12.4914
15.6005
-0.629048
-0.795509
0.307991
-0.850899
0.408483
-0.823426
0.306254
-0.676914
0.304047
11.5127
12.4156
15.9284
-0.448037
-0.493546
-0.703185
-0.440269
-0.665185
-0.620002
-0.86496
-0.459364
-0.781285
10.9788
14.7899
18.2795
0.0441114
-0.332482
-2.56489
-3.02459
-3.95482
0.0504504
0.274737
-2.11963
-2.96476
-4.01123
0.165504
-0.701866
-2.85277
3.69228
4.71321
-0.338775
0.420754
-0.178402
0.547682
-0.249644
-1.06829
0.252866
0.0120691
0.116019
-2.37013
9.27141
11.9989
9.19981
16.9494
22.3166
27.8218
0.0763377
8.29554
11.1048
12.1572
16.5577
12.1091
16.7018
12.1607
16.5387
12.0497
16.831
102.115
103.827
102.207
103.837
101.966
104.007
101.957
104.015
104.579
113.651
107.134
101.95
103.993
101.932
104.087
101.697
103.944
101.686
104.026
103.643
102.586
103.536
102.603
103.514
102.569
103.486
102.586
112.134
112.08
112.155
113.299
112.131
112.057
112.155
113.296
103.103
103.904
102.928
104.701
103.051
103.888
103.014
104.384
46.109
46.9869
46.0384
45.0294
45.7909
46.9985
45.6123
46.1024
12.0809
15.6828
45.4192
98.1085
45.8991
97.5884
-0.438741
97.632
104.264
97.0461
104.232
97.6398
104.261
97.0641
104.227
-0.0634966
92.8605
97.8314
92.8675
97.8271
92.8511
97.8297
92.8617
97.7879
141.626
131.876
141.382
131.882
139.59
141.581
139.587
141.588
139.561
141.575
139.562
141.574
129.885
130.023
129.891
130.025
129.85
129.988
129.856
129.992
134.868
137.937
134.861
137.911
134.869
137.922
134.852
137.898
130.058
130.111
130.069
130.118
130.037
130.081
130.049
130.088
46.6445
43.8806
46.6582
44.3501
46.5776
43.8488
46.5816
44.3367
13.5663
15.1255
14.0492
38.278
5.49524
20.9079
4.46293
23.0659
-4.5038
9.53469
95.3146
90.8373
70.4947
100.578
93.841
94.3755
93.7776
94.313
93.8355
94.3725
93.7749
94.3099
90.3278
85.3762
88.4056
85.8284
86.3929
85.3231
87.9919
85.3115
86.3825
87.3574
39.6019
44.09
39.3627
45.1856
39.4849
42.584
39.3294
42.5814
12.441
16.0196
-8.86102
43.5579
47.7852
43.5408
47.7856
39.6157
51.3721
39.6279
51.3708
37.4873
12.0045
15.4086
1.76509
20.3606
8.74466
42.7486
8.25887
30.423
17.7879
51.797
73.0502
82.9993
71.3
85.0386
74.7975
83.6778
86.5691
83.7208
47.2591
48.1618
47.319
48.1882
47.2074
48.1389
47.2505
48.1626
12.0615
15.5344
9.85206
36.846
3.11707
17.9347
16.5064
52.1108
13.6948
24.442
108.486
110.447
108.498
109.817
109.277
111.474
108.503
110.601
109.01
109.361
109.012
109.34
109.01
109.371
109.012
109.341
109.034
109.318
109.038
109.264
109.013
109.232
109.009
109.239
109.009
109.334
109.004
109.347
109.015
109.329
109.009
109.333
109.827
110.027
108.596
109.043
108.59
109.039
108.529
108.85
108.522
108.878
109.46
109.308
109.411
109.252
109.628
109.265
109.613
109.283
47.6702
48.426
47.7192
48.4911
47.5596
48.3997
47.6958
48.513
12.2879
15.7257
0.154088
-1.49331
-2.51464
-1.41224
-2.24026
-1.58497
-2.22745
-1.12388
-2.37023
-3.18946
-3.97687
-2.89086
-3.65361
-3.19274
-4.00261
-3.03558
-3.5924
2.10001
2.64242
0.0878514
-1.56944
-2.94034
2.09476
2.64258
0.0357345
-1.13376
-1.36208
-4.11996
-5.27226
0.0595745
-1.28633
0.187847
-0.346192
-0.314403
-0.685755
-0.221399
-0.134501
-0.216985
-0.786813
-4.74081
-6.16036
-0.490935
-6.11285
-0.710738
-3.43403
-0.264017
-1.36205
-7.96902
-4.30019
-30.5673
-35.7004
-30.8298
-37.6113
-29.7747
-35.6529
-32.4021
-39.6047
-49.0415
-53.8674
-45.1673
-53.9921
-48.8809
-53.9856
-46.1229
-54.1299
-32.0533
-40.8224
-32.3856
-40.6487
-31.6356
-41.5586
-32.4109
-40.9915
-48.7259
-54.0271
-48.3798
-55.1319
-49.3355
-54.4291
-48.3913
-54.8671
-31.4924
-49.718
-59.984
-54.0194
-8.30945
-8.28335
-8.61022
-8.28732
-8.30661
-8.29647
-8.60821
-8.48598
-7.89173
-10.3412
-5.29799
-12.0576
-16.1974
-12.0788
-16.0042
-12.1263
-16.3201
-12.123
-15.3665
-5.25823
-15.361
-15.1273
-28.767
-15.3136
-19.0684
-27.6517
-19.3549
-28.8965
-18.9344
-28.875
-18.7972
-28.9039
-23.3476
-30.5562
-23.9482
-28.7935
-23.9971
-30.9662
-23.7681
-29.355
-33.913
-33.3152
-33.1503
-33.279
-33.6633
-33.8785
-33.6111
-33.7843
-22.9511
-28.1497
-23.0246
-28.5012
-23.3454
-28.8103
-23.2595
-27.9497
-33.0129
-33.2697
-33.0866
-33.2722
-33.0613
-33.5564
-32.9036
-33.5485
-53.6968
-58.2713
-53.6814
-58.2639
-55.3794
-58.0997
-55.3714
-58.1012
-38.025
-45.0548
-38.0597
-45.2099
-38.1358
-45.1557
-38.9208
-45.8941
-52.878
-57.7998
-52.8618
-57.5824
-52.8293
-58.9731
-52.7719
-58.9246
-38.2479
-45.0402
-39.1388
-44.6488
-38.9233
-45.4716
-37.7937
-44.6041
-16.7035
-21.1529
-16.6549
-21.1491
-20.9548
-20.922
-20.9724
-20.909
-8.35797
-11.3054
-4.68677
-14.3409
-6.93952
-20.2667
-8.25599
-24.015
-4.53319
-19.3804
-24.8899
-16.7094
-10.301
-12.5563
-10.2986
-12.5468
-10.3295
-12.5699
-10.3222
-12.5675
-14.5276
-13.0528
-14.5247
-13.0439
-14.5313
-13.0858
-14.5285
-13.0648
-31.2184
-36.2658
-30.4651
-36.2199
-30.9249
-36.8638
-29.8471
-36.1707
-19.9217
-22.6202
-19.9146
-22.6118
-19.9265
-22.9766
-19.9223
-22.9502
-23.4912
-29.0809
-24.1459
-25.4515
-23.4496
-29.0687
-22.686
-29.0069
-19.9855
-18.1692
-19.9877
-18.1059
-19.9931
-18.2122
-19.9953
-18.1391
-13.9525
-10.772
-13.9532
-10.7377
-13.0017
-10.7855
-12.999
-10.7528
2.90307
3.76416
-6.54625
-19.0086
-4.81149
-15.409
-4.98161
-18.3906
-4.7354
-15.1735
78.1778
80.0782
78.2155
82.1433
78.1788
80.0823
78.2174
82.1432
83.2516
76.2704
85.4563
78.7566
84.4856
76.5222
85.4592
78.7436
84.4991
83.19
77.7544
80.8763
77.4838
82.1225
77.0283
81.0474
77.004
81.4927
82.6058
83.5709
82.607
83.5854
82.6035
83.5687
82.6047
83.5832
77.334
86.2473
77.4912
87.17
77.4239
84.9078
78.825
85.1749
83.1017
29.3549
29.3022
29.4608
29.5036
29.348
29.2179
29.4515
29.44
10.6445
13.6958
14.8407
39.6274
50.6213
39.6313
50.6336
39.6302
50.6213
39.6329
50.635
32.9285
102.26
112.216
102.267
110.732
99.2416
112.214
89.3603
113.429
14.5979
39.8217
50.6883
39.8229
50.6932
39.9055
50.6907
39.9064
50.692
32.7884
94.9634
168.543
168.491
168.557
168.528
168.525
168.52
168.574
168.543
168.277
169.111
168.296
169.191
168.361
169.169
168.364
169.195
167.115
171.113
170.658
171.159
171.038
171.116
170.823
171.178
171.036
168.459
168.531
168.474
168.569
168.424
168.549
168.487
168.569
168.285
169.14
168.293
169.23
168.279
169.189
168.287
169.278
169.762
171.221
170.986
171.269
171.042
171.438
171.009
171.435
171.039
46.0498
46.1067
43.1678
48.8507
42.9662
49.4145
43.3662
48.8528
43.2428
48.7453
46.0481
42.2758
48.9108
43.6161
48.8733
42.3291
48.5057
42.9792
48.7651
46.0333
43.1825
48.7003
43.184
48.556
43.0509
48.0305
43.1365
48.1552
45.9657
10.1587
13.0157
30.7384
89.5313
116.788
80.4092
112.544
89.6073
113.648
89.4725
113.335
19.8566
57.1229
76.3309
54.3221
76.6076
57.2711
76.4273
53.6148
76.0214
32.7872
96.8898
20.7
59.1076
75.1743
58.9304
74.8777
59.1044
74.9816
58.9544
74.8546
158.781
171.159
171.075
171.16
171.025
171.171
171.075
171.179
171.056
171.575
172.195
171.163
172.195
171.808
173.807
171.809
173.806
170.51
171.075
170.422
170.951
171.352
171.096
170.503
171.118
167.123
171.331
171.108
171.263
171.031
171.413
171.128
171.397
171.056
172.338
173.662
172.024
173.659
172.647
173.674
172.648
173.67
171.321
171.093
170.51
171.117
171.472
171.121
170.526
171.097
43.0351
49.0945
43.758
49.8339
43.4881
49.0076
43.1972
48.9043
46.0147
43.4363
49.3142
44.2906
49.153
43.3596
48.9891
43.5959
48.6561
45.9306
43.1561
48.6668
43.5642
48.8863
43.5749
48.5749
43.5896
48.9082
45.9893
43.4891
49.6265
43.3383
48.6289
43.1103
48.8214
43.4078
48.9925
46.0387
11.2656
14.5182
0.238547
-2.11236
0.140777
0.282007
0.24069
-1.61229
0.19853
0.265039
25.5939
27.9598
25.1554
28.2319
25.5642
28.0973
25.0831
28.2353
33.9151
35.1597
33.19
30.3475
33.9355
35.0852
33.2087
34.1273
-2.08106
27.7523
22.4968
27.5197
22.0592
26.9566
22.034
28.5844
22.0247
27.6797
33.9631
34.1973
33.366
33.8289
34.1057
34.1107
32.6718
33.8139
18.8925
28.3043
41.3125
52.7133
50.9691
53.3554
38.2747
52.7011
50.965
53.3795
2.42968
3.01972
-0.203399
-0.337058
-10.5476
2.38444
3.04799
-0.0900982
0.215929
0.025192
-4.7328
-6.26959
-0.0294461
1.05789
0.358213
1.12619
-0.215139
0.922133
0.407967
1.23633
0.273968
1.21858
-0.327518
-0.438649
-0.0475357
0.555627
0.478138
0.746749
0.716144
0.986557
0.95558
1.1624
1.03597
1.19768
1.34222
1.53127
1.29585
1.47955
0.759581
1.25949
1.00389
0.934116
0.498462
0.93784
0.830113
0.971419
0.791
0.977784
1.31394
1.53602
1.38294
1.59818
1.26958
1.49415
1.33323
1.60811
1.79389
-1.09298
1.74194
-1.43935
2.27245
-1.02863
2.15613
-1.40866
-5.0568
-6.56223
-3.43314
-8.29916
-12.526
-7.68566
-12.1395
-8.80819
-12.1824
-7.69718
-12.1528
-14.6436
-98.4701
-101.283
-100.727
-102.454
-98.453
-96.2186
-100.721
-102.453
-6.93112
-15.6591
-19.3322
-45.0222
-50.9772
-41.0987
-50.9927
-38.2572
-50.3294
-38.8293
-51.6547
-137.242
-138.634
-137.201
-139.31
-137.217
-138.636
-137.228
-139.297
-139.008
-139.499
-139.253
-143.552
-139.002
-139.504
-139.245
-143.52
-149.065
-143.639
-143.113
-143.647
-144.485
-143.313
-143.105
-143.336
-146.122
-137.307
-138.596
-138.317
-139.822
-137.3
-138.589
-138.292
-139.817
-139.163
-139.527
-138.896
-141.499
-139.129
-139.542
-138.851
-141.484
-147.26
-147.827
-148.037
-148.845
-147.261
-147.827
-148.029
-148.846
-140.448
-46.118
-48.4939
-52.5332
-48.3562
-47.1848
-48.4326
-53.5695
-48.6238
-7.61319
-10.7957
-29.8324
-126.383
-132.459
-129.302
-132.624
-126.645
-127.564
-127.911
-127.07
-18.8813
-56.2091
-18.9805
-55.5663
-18.0726
-53.7427
-19.1142
-55.1201
-123.403
-159.622
-126.984
-182.322
-126.914
-156.395
-131.087
-157.164
-40.1172
-108.579
-115.383
-108.232
-116.713
-108.572
-113.086
-108.235
-116.141
-36.1548
-112.079
-110.088
-111.637
-110.009
-111.96
-113.951
-98.1589
-106.981
-194.402
-197.547
-188.921
-200.13
-194.708
-197.916
-183.018
-203.259
-181.975
-182.125
-182.191
-182.696
-182.942
-182.889
-183.238
-182.976
-201.638
-198.716
-199.865
-198.401
-200.947
-200.079
-200.848
-199.455
-183.072
-183.115
-183.069
-183.139
-183.173
-183.209
-183.144
-183.171
-186.153
-182.881
-183.009
-183.182
-183.13
-183.116
-183.017
-183.133
-183.028
-183.274
-183.173
-183.228
-183.176
-183.267
-183.111
-183.284
-183.036
-183.269
-48.1673
-55.4144
-48.4431
-53.8915
-48.2807
-55.061
-48.4571
-54.9089
-47.8813
-48.2926
-54.4445
-48.3478
-54.1497
-48.1899
-55.0802
-48.2938
-55.4328
-48.7628
-47.7741
-55.103
-47.6913
-55.6485
-48.2659
-54.6444
-48.3436
-56.0957
-48.704
-46.39
-53.4893
-47.882
-53.4837
-48.1957
-53.5976
-48.4033
-54.2436
-48.9422
-7.66383
-11.4929
-12.3843
-88.5638
-90.2435
-80.2521
-93.2488
-88.9078
-90.1431
-85.1681
-90.1304
-0.972909
-39.5084
-58.184
-42.7817
-59.9361
-43.6217
-62.6175
-34.9198
-55.2524
-19.8881
-64.7343
0.0714312
-36.546
-50.5581
-35.3059
-49.5126
-37.7126
-43.4736
-37.0806
-49.2781
-151.501
-159.619
-151.543
-158.578
-151.393
-160.187
-151.504
-158.986
-141.842
-143.483
-141.834
-143.404
-141.843
-143.485
-141.835
-143.482
-151.974
-146.336
-146.463
-145.866
-150.993
-146.336
-146.456
-145.869
-141.962
-140.437
-141.097
-140.121
-141.961
-140.506
-141.099
-140.488
-150.361
-141.474
-148.217
-146.318
-145.653
-145.869
-144.835
-145.592
-144.826
-145.426
-140.9
-140.659
-140.903
-140.657
-140.986
-140.957
-139.937
-140.129
-52.7093
-36.2132
-38.8686
-34.7366
-52.7176
-36.9581
-38.9311
-35.438
-8.91616
-11.4671
-0.714516
-2.1763
1.23049
4.0155
-0.31939
1.5678
1.0559
3.86203
15.8953
19.1489
17.2589
20.4014
15.877
19.1952
17.5266
21.6841
20.7754
22.8273
23.5225
24.5924
20.9032
23.735
22.9126
23.9877
17.0262
20.8026
20.2789
23.7917
15.5994
20.3929
20.1873
23.5816
23.8967
24.9317
28.0065
25.9348
23.9867
24.3606
28.0807
25.9344
15.7236
19.0821
15.7772
19.2052
15.4432
18.6994
16.5311
19.2861
21.4552
23.6485
22.5906
24.2299
20.808
23.7015
22.5837
24.2371
15.2356
20.3144
20.1635
23.6487
16.0109
20.5006
20.1508
23.514
24.5815
24.3831
28.1665
25.9248
25.2843
24.2293
27.847
25.9191
28.2872
26.0109
28.7586
25.9185
26.8861
23.7279
26.5494
24.1668
11.35
14.6865
17.954
50.4739
60.6912
50.4919
60.6964
50.4866
60.6932
52.6151
60.6971
35.6285
94.1319
17.8373
51.7277
60.6503
52.1521
60.6677
51.2021
60.6267
51.8893
60.6295
35.7617
87.1063
89.7332
87.1085
89.7752
87.0626
89.2479
87.0701
89.764
168.283
170.99
168.285
171.017
168.292
171.082
168.283
171.142
170.344
169.532
170.366
170.463
170.377
169.587
170.436
171.569
171.074
171.88
171.512
171.87
171.555
171.893
171.554
171.898
171.586
168.547
171.805
170.881
173.214
168.925
171.874
170.894
173.751
170.458
169.706
170.616
171.612
170.437
169.74
170.617
171.616
170.447
171.904
171.602
171.902
171.599
171.86
171.617
171.867
171.604
43.8198
48.5552
42.4698
48.5099
43.9141
48.5568
44.0982
48.5559
46.0091
42.9178
48.0535
42.6934
48.1673
43.5604
48.8289
43.5122
48.7339
46.24
43.2679
48.6183
43.7668
48.8606
43.6912
49.2629
43.6401
48.7838
48.088
43.7926
49.1221
43.742
48.5002
43.8104
49.2399
43.8027
48.4806
48.3206
10.7671
13.9092
34.7425
88.6704
20.2562
55.9455
81.2648
58.5157
80.0851
57.3168
77.4704
58.1699
80.1161
34.7104
86.978
19.3533
56.0857
79.9048
57.3135
80.4425
57.9007
78.9572
57.8963
78.9526
173.532
171.833
171.587
171.329
171.705
171.853
171.598
171.321
171.674
172.882
173.948
172.879
173.939
172.904
174.154
172.887
174.037
171.411
171.512
170.537
171.041
171.403
171.54
170.552
171.429
174.377
174.923
174.371
174.463
174.376
174.922
174.37
174.472
171.878
171.613
171.308
171.665
171.865
171.587
171.292
171.588
173.321
174.552
173.007
174.276
173.256
174.554
173.008
174.327
171.365
171.539
170.567
171.431
171.352
171.534
170.562
171.43
43.3652
48.6492
43.3432
48.7597
43.7346
48.6798
43.7753
49.0391
47.0001
42.8773
48.8662
42.7075
48.7619
43.7874
49.1214
44.1166
49.543
47.1399
43.9589
48.1185
44.0183
48.0627
43.9895
48.1219
44.0277
48.0637
47.4901
44.0411
47.9552
44.102
47.8984
44.0562
47.9553
44.0831
47.9005
47.5239
9.76266
12.355
-0.150098
-3.63687
0.175501
0.424865
-0.189573
-3.63656
-0.382288
0.484857
23.9691
29.0568
25.3621
29.4834
23.011
27.9389
22.5383
27.8142
31.769
34.1938
30.3067
34.761
32.9482
34.1373
32.4948
32.5978
18.9009
28.715
23.1417
26.8985
22.0416
27.1941
22.5442
27.0783
21.9396
26.7471
31.1118
33.8366
32.6806
34.8221
31.2336
32.9721
26.608
29.8819
18.9008
28.6265
38.5931
53.1402
44.7669
55.8605
41.6562
54.4901
50.1426
52.1121
2.24723
2.44572
-0.445211
-7.02609
-15.4884
2.03643
2.36919
-0.122513
0.314478
0.26354
-4.31661
-5.66237
0.081486
0.967126
1.23984
0.807261
1.25539
0.49301
1.04894
0.666611
0.808006
1.81027
-4.88688
-7.4966
-4.9044
-16.0384
-18.8026
-60.9751
0.349639
3.65507
-9.06505
-51.4776
-83.0738
-85.5473
-82.8777
-88.5946
-81.2777
-84.7424
-80.9559
-87.5026
-86.3534
-81.5298
-90.6449
-81.4852
-83.1484
-76.7985
-93.3936
-80.8275
-81.6192
-81.9422
-81.7617
-84.5272
-84.7674
-84.5325
-84.7842
-84.4725
-84.754
-84.4744
-84.7823
-75.1335
-92.2055
-75.0994
-90.6551
-82.838
-89.294
-82.9163
-90.5634
-89.8677
-53.6831
-55.1337
-53.6596
-55.1306
-53.8997
-55.1347
-53.8942
-55.1326
-8.83986
-11.4484
-34.5344
-78.2802
-31.2241
-77.4565
-10.4866
-47.4627
-55.7863
-46.1425
-58.6039
-47.4561
-55.7849
-46.1412
-58.6037
-10.6431
-55.2361
-156.542
-154.703
-155.245
-154.702
-155.252
-154.693
-154.847
-154.693
-154.852
-156.473
-156.006
-152.502
-153.259
-152.509
-153.276
-152.501
-153.247
-152.502
-153.268
-151.871
-152.034
-151.871
-152.033
-151.864
-151.67
-151.863
-151.67
-152.509
-153.409
-152.508
-153.411
-152.515
-153.189
-152.5
-153.184
-151.847
-151.969
-151.826
-151.928
-151.71
-151.669
-151.467
-151.663
-52.7254
-48.8949
-51.7983
-48.9165
-53.2263
-49.0101
-50.3003
-48.9214
-9.64513
-12.2508
-18.5876
-56.5722
-0.895606
-0.883371
-3.37238
-22.6145
-0.196079
1.01999
1.12859
1.03022
1.14844
1.12404
1.57708
1.12855
1.58552
-125.328
-123.778
-122.658
-124.124
-122.63
-123.042
-119.381
-123.313
-118.947
-122.319
-122.802
-124.244
-122.55
-123.598
-122.681
-122.266
-122.352
-122.287
-124.543
-124.682
-123.634
-124.178
-124.228
-124.687
-123.638
-124.527
-124.198
-122.652
-122.7
-122.798
-124.192
-122.616
-122.728
-123.168
-119.987
-118.717
-118.013
-117.864
-117.769
-117.812
-117.469
-117.358
-122.483
-122.842
-122.485
-123.06
-122.631
-122.963
-122.642
-123.087
-53.023
-48.0705
-43.6953
-47.506
-47.8613
-47.4456
-46.7556
-47.3374
-8.88462
-11.4053
0.546635
1.73211
1.18684
3.51156
0.579861
1.87267
1.06014
3.61255
6.96344
8.65989
7.02851
8.73961
7.77434
9.65218
7.77542
9.62516
5.91629
6.6176
5.99502
6.51972
5.9432
6.42407
5.96775
6.44963
10.7116
16.0764
9.24445
11.7555
9.26995
11.8336
9.24825
11.8658
9.27174
11.9504
5.86951
6.29476
5.87935
6.32593
5.85935
6.29157
5.86621
6.32281
11.1784
11.413
7.82819
8.61279
8.1295
8.94962
7.39559
8.56633
8.7371
8.83664
10.6044
13.9984
9.00339
46.6351
28.7968
47.2043
0.129145
46.318
10.8366
46.2209
89.6287
95.3326
89.6187
95.3297
87.4272
95.3986
87.4156
95.396
90.7345
84.7973
90.4024
87.5857
95.2455
87.5806
95.2393
86.2721
93.7679
86.2686
93.7649
88.62
81.774
88.6466
45.8805
47.9493
46.2772
48.2008
50.0397
49.706
50.2051
49.7173
10.8143
13.7787
29.1798
47.1889
15.837
44.9124
12.235
46.3278
5.12377
23.892
84.6649
88.6451
81.108
90.6671
81.7043
89.191
84.3086
87.5349
84.2744
87.2205
88.5707
81.5201
88.7734
85.7278
87.1934
85.7261
87.196
85.9607
87.1133
85.971
87.1284
87.5001
46.35
47.8859
46.4366
47.8742
50.11
49.6981
49.8093
49.3276
9.9358
13.691
0.658001
22.3555
11.7465
-1.48247
0.31686
10.4275
10.1543
-1.48979
-1.46808
6.51227
6.25375