# vtk DataFile Version 3.0
Gravity inversion using rectangular prisms
ASCII
DATASET UNSTRUCTURED_GRID

POINTS	1529	double
100	100	100
100	100	300
100	100	500
100	100	700
100	100	900
100	300	100
100	300	300
100	300	500
100	300	700
100	300	900
100	500	100
100	500	300
100	500	500
100	500	700
100	500	900
100	700	100
100	700	300
100	700	500
100	700	700
100	700	900
100	900	100
100	900	300
100	900	500
100	900	700
100	900	900
100	1100	100
100	1100	300
100	1100	500
100	1100	700
100	1100	900
100	1300	100
100	1300	300
100	1300	500
100	1300	700
100	1300	900
100	1500	100
100	1500	300
100	1500	500
100	1500	700
100	1500	900
100	1700	100
100	1700	300
100	1700	500
100	1700	700
100	1700	900
100	1900	100
100	1900	300
100	1900	500
100	1900	700
100	1900	900
300	100	100
300	100	300
300	100	500
300	100	700
300	100	900
300	300	100
300	300	300
300	300	500
300	300	700
300	300	900
300	500	100
300	500	300
300	500	500
300	500	700
300	500	900
300	700	100
300	700	300
300	700	500
300	700	700
300	700	900
300	900	100
300	900	300
300	900	500
300	900	700
300	900	900
300	1100	100
300	1100	300
300	1100	500
300	1100	700
300	1100	900
300	1300	100
300	1300	300
300	1300	500
300	1300	700
300	1300	900
300	1500	100
300	1500	300
300	1500	500
300	1500	700
300	1500	900
300	1700	100
300	1700	300
300	1700	500
300	1700	700
300	1700	900
300	1900	100
300	1900	300
300	1900	500
300	1900	700
300	1900	900
500	100	100
500	100	300
500	100	500
500	100	700
500	100	900
500	300	100
500	300	300
500	300	500
500	300	700
500	300	900
500	500	100
450	450	250
450	450	350
450	550	250
450	550	350
550	450	250
550	450	350
550	550	250
550	550	350
500	500	500
500	500	700
500	500	900
450	650	50
450	650	150
450	750	50
450	750	150
550	650	50
550	650	150
550	750	50
550	750	150
450	650	250
450	650	350
450	750	250
450	750	350
525	625	225
525	625	275
525	675	225
525	675	275
575	625	225
575	625	275
575	675	225
575	675	275
550	650	350
525	725	225
525	725	275
525	775	225
525	775	275
575	725	225
575	725	275
575	775	225
575	775	275
550	750	350
500	700	500
500	700	700
500	700	900
500	900	100
450	850	250
450	850	350
450	950	250
450	950	350
550	850	250
550	850	350
550	950	250
550	950	350
500	900	500
500	900	700
500	900	900
500	1100	100
500	1100	300
500	1100	500
500	1100	700
500	1100	900
500	1300	100
500	1300	300
500	1300	500
500	1300	700
500	1300	900
500	1500	100
500	1500	300
500	1500	500
500	1500	700
500	1500	900
500	1700	100
500	1700	300
500	1700	500
500	1700	700
500	1700	900
500	1900	100
500	1900	300
500	1900	500
500	1900	700
500	1900	900
700	100	100
700	100	300
700	100	500
700	100	700
700	100	900
700	300	100
700	300	300
700	300	500
700	300	700
700	300	900
650	450	50
650	450	150
650	550	50
650	550	150
750	450	50
750	450	150
750	550	50
750	550	150
650	450	250
650	450	350
650	550	250
650	550	350
750	450	250
750	450	350
750	550	250
750	550	350
700	500	500
700	500	700
700	500	900
625	625	25
625	625	75
625	675	25
625	675	75
675	625	25
675	625	75
675	675	25
675	675	75
625	625	125
625	625	175
625	675	125
625	675	175
675	625	125
675	625	175
675	675	125
675	675	175
625	725	25
625	725	75
625	775	25
625	775	75
675	725	25
675	725	75
675	775	25
675	775	75
625	725	125
625	725	175
625	775	125
625	775	175
675	725	125
675	725	175
675	775	125
675	775	175
725	625	25
725	625	75
725	675	25
725	675	75
775	625	25
775	625	75
775	675	25
775	675	75
725	625	125
725	625	175
725	675	125
725	675	175
775	625	125
775	625	175
775	675	125
775	675	175
725	725	25
725	725	75
725	775	25
725	775	75
775	725	25
775	725	75
775	775	25
775	775	75
725	725	125
725	725	175
725	775	125
725	775	175
775	725	125
775	725	175
775	775	125
775	775	175
625	625	225
625	625	275
625	675	225
625	675	275
675	625	225
675	625	275
675	675	225
675	675	275
625	625	325
625	625	375
625	675	325
625	675	375
675	625	325
675	625	375
675	675	325
675	675	375
625	725	225
625	725	275
625	775	225
625	775	275
675	725	225
675	725	275
675	775	225
675	775	275
625	725	325
625	725	375
625	775	325
625	775	375
675	725	325
675	725	375
675	775	325
675	775	375
750	650	250
750	650	350
750	750	250
750	750	350
650	650	450
650	650	550
650	750	450
650	750	550
750	650	450
750	650	550
750	750	450
750	750	550
700	700	700
700	700	900
650	850	50
650	850	150
650	950	50
650	950	150
750	850	50
750	850	150
750	950	50
750	950	150
650	850	250
650	850	350
650	950	250
650	950	350
750	850	250
750	850	350
750	950	250
750	950	350
700	900	500
700	900	700
700	900	900
700	1100	100
650	1050	250
650	1050	350
650	1150	250
650	1150	350
750	1050	250
750	1050	350
750	1150	250
750	1150	350
700	1100	500
700	1100	700
700	1100	900
700	1300	100
650	1250	250
650	1250	350
650	1350	250
650	1350	350
750	1250	250
750	1250	350
750	1350	250
750	1350	350
700	1300	500
700	1300	700
700	1300	900
700	1500	100
650	1450	250
650	1450	350
650	1550	250
650	1550	350
750	1450	250
750	1450	350
750	1550	250
750	1550	350
700	1500	500
700	1500	700
700	1500	900
700	1700	100
700	1700	300
700	1700	500
700	1700	700
700	1700	900
700	1900	100
700	1900	300
700	1900	500
700	1900	700
700	1900	900
900	100	100
900	100	300
900	100	500
900	100	700
900	100	900
900	300	100
900	300	300
900	300	500
900	300	700
900	300	900
850	450	50
850	450	150
850	550	50
850	550	150
950	450	50
950	450	150
950	550	50
950	550	150
850	450	250
850	450	350
850	550	250
850	550	350
950	450	250
950	450	350
950	550	250
950	550	350
900	500	500
900	500	700
900	500	900
825	625	25
825	625	75
825	675	25
825	675	75
875	625	25
875	625	75
875	675	25
875	675	75
825	625	125
825	625	175
825	675	125
825	675	175
875	625	125
875	625	175
875	675	125
875	675	175
850	750	50
825	725	125
825	725	175
825	775	125
825	775	175
875	725	125
875	725	175
875	775	125
875	775	175
950	650	50
925	625	125
925	625	175
925	675	125
925	675	175
975	625	125
975	625	175
975	675	125
975	675	175
950	750	50
925	725	125
925	725	175
925	775	125
925	775	175
975	725	125
975	725	175
975	775	125
975	775	175
850	650	250
850	650	350
850	750	250
850	750	350
925	625	225
925	625	275
925	675	225
925	675	275
975	625	225
975	625	275
975	675	225
975	675	275
925	625	325
925	625	375
925	675	325
925	675	375
975	625	325
975	625	375
975	675	325
975	675	375
925	725	225
925	725	275
925	775	225
925	775	275
975	725	225
975	725	275
975	775	225
975	775	275
925	725	325
925	725	375
925	775	325
925	775	375
975	725	325
975	725	375
975	775	325
975	775	375
850	650	450
850	650	550
850	750	450
850	750	550
950	650	450
950	650	550
950	750	450
950	750	550
900	700	700
900	700	900
850	850	50
850	850	150
850	950	50
850	950	150
950	850	50
950	850	150
950	950	50
950	950	150
850	850	250
850	850	350
850	950	250
850	950	350
925	825	225
925	825	275
925	875	225
925	875	275
975	825	225
975	825	275
975	875	225
975	875	275
950	850	350
950	950	250
950	950	350
900	900	500
900	900	700
900	900	900
900	1100	100
850	1050	250
850	1050	350
850	1150	250
850	1150	350
950	1050	250
950	1050	350
950	1150	250
950	1150	350
900	1100	500
900	1100	700
900	1100	900
850	1250	50
850	1250	150
850	1350	50
850	1350	150
950	1250	50
950	1250	150
950	1350	50
950	1350	150
825	1225	225
825	1225	275
825	1275	225
825	1275	275
875	1225	225
875	1225	275
875	1275	225
875	1275	275
850	1250	350
825	1325	225
825	1325	275
825	1375	225
825	1375	275
875	1325	225
875	1325	275
875	1375	225
875	1375	275
850	1350	350
925	1225	225
925	1225	275
925	1275	225
925	1275	275
975	1225	225
975	1225	275
975	1275	225
975	1275	275
950	1250	350
925	1325	225
925	1325	275
925	1375	225
925	1375	275
975	1325	225
975	1325	275
975	1375	225
975	1375	275
950	1350	350
900	1300	500
900	1300	700
900	1300	900
850	1450	50
850	1450	150
850	1550	50
850	1550	150
950	1450	50
950	1450	150
950	1550	50
950	1550	150
825	1425	225
825	1425	275
825	1475	225
825	1475	275
875	1425	225
875	1425	275
875	1475	225
875	1475	275
850	1450	350
825	1525	225
825	1525	275
825	1575	225
825	1575	275
875	1525	225
875	1525	275
875	1575	225
875	1575	275
850	1550	350
925	1425	225
925	1425	275
925	1475	225
925	1475	275
975	1425	225
975	1425	275
975	1475	225
975	1475	275
925	1425	325
925	1425	375
925	1475	325
925	1475	375
975	1425	325
975	1425	375
975	1475	325
975	1475	375
925	1525	225
925	1525	275
925	1575	225
925	1575	275
975	1525	225
975	1525	275
975	1575	225
975	1575	275
950	1550	350
850	1450	450
850	1450	550
850	1550	450
850	1550	550
950	1450	450
950	1450	550
950	1550	450
950	1550	550
900	1500	700
900	1500	900
900	1700	100
850	1650	250
850	1650	350
850	1750	250
850	1750	350
950	1650	250
950	1650	350
950	1750	250
950	1750	350
900	1700	500
900	1700	700
900	1700	900
900	1900	100
900	1900	300
900	1900	500
900	1900	700
900	1900	900
1100	100	100
1100	100	300
1100	100	500
1100	100	700
1100	100	900
1100	300	100
1100	300	300
1100	300	500
1100	300	700
1100	300	900
1050	450	50
1050	450	150
1050	550	50
1050	550	150
1150	450	50
1150	450	150
1150	550	50
1150	550	150
1050	450	250
1050	450	350
1050	550	250
1050	550	350
1150	450	250
1150	450	350
1150	550	250
1150	550	350
1100	500	500
1100	500	700
1100	500	900
1050	650	50
1025	625	125
1025	625	175
1025	675	125
1025	675	175
1075	625	125
1075	625	175
1075	675	125
1075	675	175
1050	750	50
1025	725	125
1025	725	175
1025	775	125
1025	775	175
1075	725	125
1075	725	175
1075	775	125
1075	775	175
1150	650	50
1125	625	125
1125	625	175
1125	675	125
1125	675	175
1175	625	125
1175	625	175
1175	675	125
1175	675	175
1150	750	50
1125	725	125
1125	725	175
1125	775	125
1125	775	175
1175	725	125
1175	725	175
1175	775	125
1175	775	175
1025	625	225
1025	625	275
1025	675	225
1025	675	275
1075	625	225
1075	625	275
1075	675	225
1075	675	275
1025	625	325
1025	625	375
1025	675	325
1025	675	375
1075	625	325
1075	625	375
1075	675	325
1075	675	375
1025	725	225
1025	725	275
1025	775	225
1025	775	275
1075	725	225
1075	725	275
1075	775	225
1075	775	275
1025	725	325
1025	725	375
1025	775	325
1025	775	375
1075	725	325
1075	725	375
1075	775	325
1075	775	375
1150	650	250
1150	650	350
1150	750	250
1150	750	350
1050	650	450
1050	650	550
1050	750	450
1050	750	550
1150	650	450
1150	650	550
1150	750	450
1150	750	550
1100	700	700
1100	700	900
1050	850	50
1050	850	150
1050	950	50
1050	950	150
1150	850	50
1150	850	150
1150	950	50
1150	950	150
1050	850	250
1050	850	350
[...]
CELL_DATA	1529
SCALARS model double 1
LOOKUP_TABLE table0
0.326285
-0.922586
-0.428783
0.276212
0.328068
0.598592
-0.668313
-0.363394
-0.376241
-0.305112
0.337868
0.734218
-0.309729
-0.406423
0.0245729
0.803813
-4.06375
-1.96077
-2.82213
-3.3161
0.594984
-1.04383
-1.84001
-2.63633
-3.28926
0.315708
-0.10012
-1.87019
-2.69358
-3.38169
0.304595
-0.236783
-1.89412
-2.71422
-3.2421
0.323312
-0.527873
-1.80731
-1.36054
-1.70105
0.122928
0.441171
-0.400825
-0.808756
-1.11778
-0.0681346
0.675297
-0.116971
-0.684789
-0.876359
0.400216
1.01294
0.3197
0.383653
0.382798
0.934196
-6.9038
-1.00659
-0.504762
-0.568984
1.07682
2.23181
-0.429806
-0.3277
-0.380404
1.30869
3.60978
-0.638821
-0.544808
-0.650181
0.473579
3.2505
-1.12885
-1.79809
-2.32996
-0.345583
-0.408458
-1.29825
-2.05661
-2.64333
0.300651
-0.255197
-1.34809
-2.29647
-2.89875
0.129145
-1.19431
-1.78452
-1.45161
-1.74396
0.221557
-1.05945
-0.760616
-0.902899
-1.10944
0.0280283
-0.0694127
-0.302064
-0.888288
-1.12198
0.417754
-1.99978
-0.345148
1.29117
1.70128
1.71775
-2.85955
-1.07571
1.07241
1.40343
5.23159
17.8324
25.3573
18.4699
26.0937
18.3591
26.2132
20.6931
28.4951
33.6082
8.10291
10.4557
3.67578
11.5724
3.56485
11.6304
3.56065
20.035
3.56398
19.9818
18.9022
27.5684
18.2256
25.7446
29.9261
36.5459
29.8974
36.4867
31.0598
38.0977
30.9844
38.0811
48.5703
29.8081
36.3936
29.7314
37.0317
30.5528
37.3638
30.6737
37.1193
45.3698
41.1061
10.8747
13.9801
4.81425
18.6153
25.5542
18.1044
25.2816
18.6727
25.8018
18.4481
25.706
38.8911
10.8814
13.9906
0.698703
-1.82309
-1.31292
-0.459203
-0.559231
-0.253199
-0.267133
0.814754
-0.909717
-1.13504
0.521932
-0.612965
-0.424165
-1.24598
-1.60157
0.306511
-0.445992
-0.763818
-1.14638
-1.48626
0.0368576
0.0109794
-0.743559
-1.13192
-1.44759
0.0136499
-1.50022
0.336679
0.827448
1.07345
2.10291
8.38148
17.8207
2.94468
3.77255
8.38418
24.9546
8.51067
25.6499
8.38233
25.4185
8.70412
26.1266
40.1991
55.9878
78.3398
104.93
42.4341
57.545
76.8069
104.247
36.6073
8.96078
11.525
-34.0117
-27.1095
-34.0124
-27.1163
-34.0172
-27.1106
-34.0181
-27.1154
317.36
324.256
317.354
324.245
317.371
324.263
317.371
324.264
-18.4038
-26.0897
-18.3991
-26.0851
-18.4056
-26.0884
-18.4004
-26.0786
289.797
301.282
289.786
301.261
289.79
301.275
289.788
301.273
-34.8895
-31.1566
-34.8891
-31.1498
-34.8922
-31.222
-34.8922
-31.2306
371.838
375.802
371.839
375.802
371.844
375.808
371.837
375.8
-34.9601
-22.2836
-34.9589
-22.2737
-34.9599
-22.2584
-34.9593
-22.2568
287.58
301.069
287.568
301.053
287.577
301.06
287.552
301.041
270.247
272.726
270.23
272.857
270.262
272.9
270.261
272.92
215.834
246.667
216.27
248.546
215.498
246.507
215.834
246.941
269.942
272.716
269.908
272.804
269.951
272.797
269.935
272.918
216.153
249.135
214.356
247.715
215.148
248.438
214.321
247.511
311.953
230.999
312.452
231.774
42.555
53.471
42.6382
53.0159
45.066
53.6717
44.7338
53.6145
10.9615
14.114
3.00311
52.7651
2.9938
52.2851
2.95717
52.8055
3.02392
52.2496
80.1039
103.642
37.4341
26.9921
73.1573
103.674
37.5846
26.8127
47.537
12.9164
16.6018
0.371381
3.69861
5.40238
3.77148
5.40936
3.94109
5.53135
3.76329
5.44495
6.73888
13.2377
17.0362
-0.0111676
0.29071
0.679159
0.0844852
0.691335
0.232656
0.738276
0.20193
0.686779
0.926078
12.3847
15.9231
-0.4224
0.0946475
0.359549
0.0551869
0.197764
0.165781
0.373465
0.0438267
0.289891
0.118569
7.8399
10.1104
0.991988
0.101433
-0.521373
-1.32344
-1.68138
0.144603
1.10253
-0.518507
-1.40033
-1.81594
-0.0453435
-0.324522
0.534442
1.06013
1.37066
0.0788772
12.8772
5.40364
3.21681
4.17848
7.29341
24.8449
7.34509
26.3048
-0.464112
21.1565
0.366199
24.3508
41.5473
54.093
50.2669
65.6558
32.1148
48.4398
40.182
49.5071
8.07855
3.33572
4.27436
-32.9158
-31.4764
-32.9146
-31.4545
-32.9132
-31.4731
-32.9158
-31.4951
196.018
203.221
196.059
203.218
196.036
203.291
195.997
203.246
-5.25549
195.553
203.247
195.595
203.268
195.549
203.317
195.525
203.268
-21.7709
94.8704
133.473
95.458
133.331
94.8047
133.284
94.7874
132.877
-22.0925
96.6561
135.023
96.9293
135.615
93.87
134.587
93.8641
135.151
296.68
200.449
295.094
199.228
181.49
236.416
181.456
236.391
181.49
236.376
181.425
236.369
183.867
213.201
183.885
213.212
183.828
213.14
183.858
213.145
174.728
214.593
174.557
214.483
174.749
214.511
174.365
214.454
186.12
212.771
186.134
212.749
186.05
212.774
186.058
212.765
33.1517
40.4912
33.1194
40.5015
33.1748
40.47
33.1294
40.4216
5.78433
7.52607
4.00347
19.837
4.32693
19.9785
1.14515
6.03498
2.84036
7.1952
28.3701
25.4818
26.5862
34.7774
9.85974
7.20653
9.84342
7.18303
9.57828
7.07791
9.58243
7.06247
22.485
12.5346
22.0273
36.7145
12.965
16.6134
0.208807
11.5371
24.3227
11.2574
24.2638
13.8329
23.8622
12.8353
23.8482
44.1218
14.983
19.2427
4.27214
6.2736
4.83462
15.9096
11.9495
36.3561
12.7191
37.9242
-35.3342
-43.7768
-35.3346
-43.7774
-35.337
-43.7888
-35.3364
-43.7894
26.8611
208.286
249.643
208.24
249.635
208.286
249.819
208.217
249.732
117.524
80.2855
98.3431
79.9635
98.7087
80.4936
98.2372
80.4991
98.2205
41.4329
183.585
252.062
183.64
252.142
183.58
252.131
183.616
252.148
117.541
58.9901
15.1431
19.4626
7.48784
22.3911
4.86209
19.2362
8.975
38.8774
8.99372
26.7485
207.99
248.808
207.911
248.807
208.016
248.853
207.908
248.759
117.548
-79.2585
-100.552
-79.2288
-100.518
-79.2248
-100.515
-79.2587
-100.552
14.0708
322.71
324.94
322.71
324.947
322.711
324.949
322.712
324.943
110.417
124.068
110.415
124.069
110.364
124.021
110.343
124.008
44.39
72.5016
44.3666
72.406
44.4072
72.538
44.4118
72.447
92.3885
52.7742
64.5266
52.852
64.4586
56.5102
64.6039
56.0302
64.6337
15.1342
19.4645
1.32565
2.63864
3.48965
3.21528
3.53004
2.99924
3.67238
3.31596
3.55549
4.56304
-0.682185
-0.833702
0.620221
0.581691
-1.42641
-1.5654
-2.00133
-0.0307686
0.600938
0.632135
0.204022
0.285147
-5.80872e-05
-0.886126
-1.51296
-1.84903
-2.33489
-0.257201
-5.07328
-0.397318
-4.94415
-0.684669
-6.69483
-2.18801
-6.54355
-26.4
-32.1814
-26.1853
-38.1685
-25.9044
-31.6417
-27.3955
-35.8656
-11.5997
-7.28575
-9.35624
-5.90485
-9.84893
-13.8258
-9.83841
-13.8717
-9.83701
-13.8466
-9.85492
-13.8497
-12.3718
52.1725
69.4731
52.1751
69.4705
52.216
69.4336
52.1876
69.4691
8.01358
-108.522
-167.263
-108.557
-167.162
-108.659
-167.29
-108.625
-167.253
2.46338
-70.284
-103.956
-70.2444
-103.97
-70.4842
-103.989
-70.4701
-104.001
-11.2244
-21.2681
-11.2124
-21.198
-11.209
-21.3374
-11.2023
-21.2445
-26.5098
-32.3695
-26.4859
-31.9634
-27.2493
-32.6714
-26.9322
-32.3483
-9.86767
-12.5472
-10.3194
-12.9501
-9.79715
-12.5054
-10.3292
-12.9023
-21.2847
-25.1275
-21.0501
-24.9626
-21.4373
-25.5807
-21.3824
-25.405
-111.878
-32.6654
-111.843
-34.4958
-40.0001
-50.3382
-36.3708
-50.0863
-43.6261
-59.0805
-42.6881
-59.6985
-12.2247
-15.6971
-3.45183
-7.96938
-3.55385
-7.92091
-8.45811
-20.5166
-7.2595
-9.9999
-10.7681
-10.4489
-8.61448
-8.82336
-32.3898
-33.2616
1.06113
-5.8536
-12.3275
-15.0253
-10.4595
-11.887
-18.045
-21.359
-9.61554
-11.9833
-12.1684
-15.623
-0.594148
19.5686
27.3258
18.7615
28.0166
21.3084
28.4043
17.3472
27.9067
47.3024
61.918
47.6004
59.1925
46.9358
60.7909
47.8117
59.955
15.0139
19.2756
12.5303
50.1196
12.5456
125.485
11.9579
60.5398
12.4916
116.873
88.8135
147.162
208.672
184.031
95.1329
147.311
200.424
185.348
57.5237
69.5371
57.3066
69.3952
57.634
69.6044
57.1436
69.4888
15.1347
19.5776
12.5282
137.874
152.977
137.859
152.96
137.858
152.96
137.873
152.978
1.66195
86.8129
12.6848
116.728
2.4276
87.5135
215.192
183.103
136.094
179.259
136.047
179.244
136.054
179.255
136.092
179.253
211.394
194.081
211.393
194.06
211.394
194.087
211.392
194.107
196.873
183.296
151.619
182.97
56.0873
69.1735
55.8766
68.8298
56.1625
69.0311
56.0179
68.6178
15.1255
19.4809
1.68699
4.5778
5.81381
3.43774
4.31696
4.86547
5.60478
3.80908
4.36534
4.05488
-1.45151
-1.90386
0.959936
0.869519
-1.35957
-1.56882
-2.01946
0.0387773
0.421853
0.293655
0.2196
0.308384
-0.142598
-9.15875
-8.70884
-3.91977
-4.99717
-6.42485
-37.9424
-8.93288
-40.339
-9.3028
-36.6154
-9.19478
-39.3202
-57.9862
-92.7863
-62.566
-86.6415
-56.3497
-88.6937
-62.5452
-87.5039
-27.7063
-11.9388
-15.374
19.9766
5.62993
19.9725
5.63488
19.974
5.60555
19.9771
5.70687
-234.069
-255.891
-234.123
-255.884
-238.249
-255.917
-238.183
-255.89
8.30127
6.48552
8.29522
6.47459
8.29929
6.4584
8.30088
6.51784
-233.724
-251.623
-233.765
-251.573
-234.232
-251.654
-234.221
-251.615
3.23586
9.22179
3.23839
9.24042
3.22946
9.22305
3.2325
9.24535
-244.8
-256.66
-244.785
-256.639
-244.774
-256.638
-244.793
-256.64
21.1949
8.67733
21.1963
8.74476
21.1974
8.78631
21.195
8.68696
-245.843
-254.736
-245.78
-254.703
-245.767
-254.728
-245.824
-254.724
-250.405
-176.663
-250.665
-155.08
-251.04
-157.769
-250.021
-154.259
-64.684
-60.8597
-64.1622
-61.8019
-64.5363
-60.8391
-64.4214
-61.7616
-17.9285
-23.0705
-11.3978
-35.8182
-11.091
-13.3634
-15.2434
-36.3476
-9.92259
-15.276
-66.7665
-105.021
-34.9628
-49.6357
-80.2034
-120.009
-51.16
-70.2976
-55.2849
-17.8619
-23.1074
-5.04092
0.756019
2.00058
3.8402
-3.79948
-3.267
0.538431
4.14005
8.81819
2.62859
8.79155
13.3941
-2.5966
0.662659
4.87054
11.4374
3.66406
2.25782
9.98743
2.21512
1.58211
1.15999
1.50603
2.02858
0.218596
-3.29693
11.224
61.0191
11.2468
115.125
1.32201
53.8984
75.0383
53.8847
75.0618
53.8915
75.071
53.913
75.0652
-12.7588
-3.09709
-12.7588
-3.20343
-12.7594
-3.14997
-12.7581
-3.11076
262.429
271.653
262.405
271.624
262.379
271.587
262.454
271.69
98.4915
147.633
200.412
185.616
107.165
144.962
201.081
184.92
57.6667
68.892
57.2684
69.1634
56.1602
69.0944
55.4051
69.1298
14.6579
18.7393
11.7118
95.7672
135.297
95.7441
135.253
95.7471
135.097
95.7625
135.151
1.60616
58.4048
-12.627
-3.04418
-12.6274
-3.18126
-12.6273
-3.10628
-12.6257
-3.08052
353.161
357.464
353.139
357.433
353.144
357.434
353.162
357.466
0.737365
2.75128
4.25543
2.73586
4.22917
2.74091
4.23815
2.75393
4.25385
196.956
183.814
151.473
183.815
201.331
183.221
161.366
200.719
161.314
200.67
161.325
200.684
161.346
200.698
171.833
195.515
171.816
195.503
171.855
195.51
171.874
195.519
55.9176
68.6375
55.8103
68.5048
55.6004
68.7693
55.636
68.2555
14.841
19.0225
1.10465
2.96149
1.17619
2.9654
1.02346
2.69097
0.707999
3.08468
4.1209
5.31891
3.74901
5.04921
4.21579
5.72706
3.64471
4.95373
2.73744
-1.21396
-1.5827
0.351127
1.68336
-1.41381
-1.22681
-1.53275
-0.0436271
0.911759
0.950965
0.365108
0.478757
-0.290662
-2.31645
-8.36146
-3.86262
-4.91495
-3.20399
-32.6137
-3.26476
-33.735
-2.24279
-23.1416
-2.95468
-32.0567
-55.1703
-85.9111
-54.7788
-74.2021
-46.196
-65.7564
-48.6569
-76.1274
-27.6966
-11.9461
-15.3748
3.36497
11.0315
3.36665
11.0452
3.37672
11.0456
3.37662
11.0378
-241.435
-254.162
-241.381
-254.131
-241.303
-254.104
-241.343
-254.125
9.15112
10.981
9.15397
11.031
9.15103
11.033
9.14859
10.9731
-226.567
-250.234
-226.491
-250.226
-226.445
-250.154
-226.448
-250.159
5.10864
-60.3383
6.02437
-42.2751
-80.934
-42.266
-81.0424
-42.2247
-80.9294
-42.2494
-81.0156
-253.885
-148.253
-253.206
-149.713
-145.712
-137.492
-131.834
-172.756
-131.833
-172.753
-131.832
-172.755
-131.825
-172.747
-137.653
-64.606
-60.3943
-64.6926
-60.4707
-64.7271
-60.4835
-64.4656
-60.1471
-17.8913
-22.9792
-7.175
-52.503
-4.99509
-26.4714
0.573238
-32.6583
0.104319
-17.8001
-67.9349
-130.826
-41.1559
-64.6422
-54.1116
-131.4
-40.6324
-62.8104
-55.3095
-17.8276
-22.9009
-0.178585
-0.0424344
1.08962
0.200899
1.61742
0.106225
1.33189
6.10532
2.90241
2.62892
1.14827
1.00387
1.10266
43.6961
1.10025
43.8219
-0.851887
42.301
-0.681174
43.0196
74.1745
97.1037
119.666
159.953
73.8119
94.3432
64.6158
97.0295
48.9694
10.2683
13.1695
2.69561
43.8854
1.53596
20.9389
1.66183
43.3023
-0.355599
21.1363
187.506
224.985
187.492
224.978
187.489
224.974
187.501
224.979
173.583
159.475
183.933
131.696
163.535
131.732
163.57
131.709
163.546
131.677
163.513
96.8758
41.8598
52.4461
49.4467
10.2225
13.1354
0.386429
0.320478
-0.850152
-1.05021
-1.34993
0.670152
-0.0585026
-0.311607
-0.944724
-1.20129
0.0152971
-1.32822
0.0848141
1.08114
1.39557
-0.285351
0.665349
0.764271
1.28824
1.75878
-0.854529
-2.19782
-1.73623
1.18323
1.51545
0.359706
-1.6905
0.199174
-1.46346
-0.552684
-2.80403
-2.06811
-3.98965
-3.94465
-5.50447
-4.00466
-5.5271
-3.87399
-5.48026
-3.45879
-5.32093
-8.26446
1.03931
1.29564
0.250975
-3.37961
-10.2254
0.978305
1.2501
0.201008
0.328023
0.159775
0.631323
0.845539
-0.084673
-0.613868
12.8645
0.207741
0.07139
0.319976
0.813087
0.998425
0.811158
1.00082
0.786765
1.00656
0.777258
1.01667
-0.742108
0.0792181
0.0675841
0.033862
0.862514
-0.277103
0.155482
0.331333
-0.272425
1.19811
0.181828
0.267694
0.416645
-0.126721
-0.316458
-0.303261
1.14263
1.4598
-0.312498
1.14255
0.896551
1.28305
1.66256
-0.395982
-2.49249
0.278042
0.872856
1.2323
-0.33993
0.611055
0.750889
1.09592
1.41821
-0.118921
0.190046
0.0632524
0.999205
1.30796
0.243288
-0.676827
-0.289568
0.632912
0.880851
0.276375
-1.08835
-1.43905
0.215127
0.034474
0.14803
0.641231
-0.717322
0.0565381
0.0831015
-0.0785443
-0.21561
-0.0721929
0.232885
0.289177
-0.252422
1.2031
0.118275
0.369202
0.423759
SCALARS m0 double 1
LOOKUP_TABLE table1
0
0
0
0
0
0
0
0
0
0
0
0
0
0
0
0
0
0
0
0
0
0
0
0
0
0
0
0
0
0
0
0
0
0
0
0
0
0
0
0
0
0
0
0
0
0
0
0
0
0
0
0
0
0
0
0
0
0
0
0
0
0
0
0
0
0
0
0
0
0
0
0
0
0
0
0
0
0
0
0
0
0
0
0
0
0
0
0
0
0
0
0
0
0
0
0
0
0
0
0
0
0
0
0
0
0
0
0
0
0
0
0
0
0
0
0
0
0
0
0
0
0
0
0
0
0
0
0
0
0
0
0
0
0
0
0
0
0
0
0
0
0
0
0
0
0
0
0
0
0
0
0
0
0
0
0
0
0
0
0
0
0
0
0
0
0
0
0
0
0
0
0
0
0
0
0
0
0
0
0
0
0
0
0
0
0
0
0
0
0
0
0
0
0
0
0
0
0
0
0
0
0
0
0
0
0
0
0
0
0
0
0
0
0
0
0
0
0
0
0
0
0
0
0
0
0
0
0
0
0
0
0
0
0
0
0
0
0
0
0
0
0
0
0
0
0
0
0
0
0
0
0
0
0
0
0
0
0
0
0
0
0
0
0
0
0
0
0
0
0
0
0
0
0
0
0
0
0
0
0
0
0
0
0
0
0
0
0
0
0
0
0
0
0
0
0
0
0
0
0
0
0
0
0
0
0
0
0
0
0
0
0
0
0
0
0
0
0
0
0
0
0
0
0
0
0
0
0
0
0
0
0
0
0
0
0
0
0
0
0
0
0
0
0
0
0
0
0
0
0
0
0
0
0
0
0
0
0
0
0
0
0
0
0
0
0
0
0
0
0
0
0
0
0
0
0
0
0
0
0
0
0
0
0
0
0
0
0
0
0
0
0
0
0
0
0
0
0
0
0
0
0
0
0
0
0
0
0
0
0
0
0
0
0
0
0
0
0
0
0
0
0
0
0
0
0
0
0
0
0
0
0
0
0
0
0
0
0
0
0
0
0
0
0
0
0
0
0
0
0
0
0
0
0
0
0
0
0
0
0
0
0
0
0
0
0
0
0
0
0
0
0
0
0
0
0
0
0
0
0
0
0
0
0
0
0
0
0
0
0
0
0
0
0
0
0
0
0
0
0
0
0
0
0
0
0
0
0
0
0
0
0
0
0
0
0
0
0
0
0
0
0
0
0
0
0
0
0
0
0
0
0
0
0
0
0
0
0
0
0
0
0
0
0
0
0
0
0
0
0
0
0
0
0
0
0
0
0
0
0
0
0
0
0
0
0
0
0
0
0
0
0
0
0
0
0
0
0
0
0
0
0
0
0
0
0
0
0
0
0
0
0
0
0
0
0
0
0
0
0
0
0
0
0
0
0
0
0
0
0
0
0
0
0
0
0
0
0
0
0
0
0
0
0
0
0
0
0
0
0
0
0
0
0
0
0
0
0
0
0
0
0
0
0
0
0
0
0
0
0
0
0
0
0
0
0
0
0
0
0
0
0
0
0
0
0
0
0
0
0
0
0
0
0
0
0
0
0
0
0
0
0
0
0
0
0
0
0
0
0
0
0
0
0
0
0
0
0
0
0
0
0
0
0
0
0
0
0
0
0
0
0
0
0
0
0
0
0
0
0
0
0
0
0
0
0
0
0
0
0
0
0
0
0
0
0
0
0
0
0
0
0
0
0
0
0
0
0
0
0
0
0
0
0
0
0
0
0
0
0
0
0
0
0
0
0
0
0
0
0
0
0
0
0
0
0
0
0
0
0
0
0
0
0
0
0
0
0
0
0
0
0
0
0
0
0
0
0
0
0
0
0
0
0
0
0
0
0
0
0
0
0
0
0
0
0
0
0
0
0
0
0
0
0
0
0
0
0
0
0
0
0
0
0
0
0
0
0
0
0
0
0
0
0
0
0
0
0
0
0
0
0
0
0
0
0
0
0
0
0
0
0
0
0
0
0
0
0
0
0
0
0
0
0
0
0
0
0
0
0
0
0
0
0
0
0
0
0
0
0
0
0
0
0
0
0
0
0
0
0
0
0
0
0
0
0
0
0
0
0
0
0
0
0
0
0
0
0
0
0
0
0
0
0
0
0
0
0
0
0
0
0
0
0
0
0
0
0
0
0
0
0
0
0
0
0
0
0
0
0
0
0
0
0
0
0
0
0
0
0
0
0
0
0
0
0
0
0
0
0
0
0
0
0
0
0
0
0
0
0
0
0
0
0
0
0
0
0
0
0
0
0
0
0
0
0
0
0
0
0
0
0
0
0
0
0
0
0
0
0
0
0
0
0
0
0
0
0
0
0
0
0
0
0
0
0
0
0
0
0
0
0
0
0
0
0
0
0
0
0
0
0
0
0
0
0
0
0
0
0
0
0
0
0
0
0
0
0
0
0
0
0
0
0
0
0
0
0
0
0
0
0
0
0
0
0
0
0
0
0
0
0
0
0
0
0
0
0
0
0
0
0
0
0
0
0
0
0
0
0
0
0
0
0
0
0
0
0
0
0
0
0
0
0
0
0
0
0
0
0
0
0
0
0
0
0
0
0
0
0
0
0
0
0
0
0
0
0
0
0
0
0
0
0
0
0
0
0
0
0
0
0
0
0
0
0
0
0
0
0
0
0
0
0
0
0
0
0
0
0
0
0
0
0
0
0
0
0
0
0
0
0
0
0
0
0
0
0
0
0
0
0
0
0
0
0
0
0
0
0
0
0
0
0
0
0
0
0
0
0
0
0
0
0
0
0
0
0
0
0
0
0
0
0
0
0
0
0
0
0
0
0
0
0
0
0
0
0
0
0
0
0
0
0
0
0
0
0
0
0
0
0
0
0
0
0
0
0
0
0
0
0
0
0
0
0
0
0
0
0
0
0
0
0
0
0
0
0
0
0
0
0
0
0
0
0
0
0
0
0
0
0
0
0
0
0
0
0
0
0
0
0
0
0
0
0
0
0
0
0
0
0
0
0
0
0
0
0
0
0
0
0
0
0
0
0
0
0
0
0
0
0
0
0
0
0
0
0
0
0
0
0
0
0
0
0
0
0
0
0
0
0
0
0
0
0
0
0
0
0
0
0
0
0
0
0
0
0
0
0
0
0
0
0
0
0
0
0
0
0
0
0
0
0
0
0
0
0
0
0
0
0
0
0
0
0
0
0
0
0
0
0
0
0
0
0
0
0
0
0
0
0
0
0
0
0
0
0
0
0
0
0
0
0
0
0
0
0
0
0
0
0
0
0
0
0
0
0
0
0
0
0
0
0
0
0
0
0
0
0
0
0
0
0
0
0
0
0
0
0
0
0
0
0
0
0
0
0
0
0
0
0
0
0
0
0
0
0
0
0
0
0
0
0
0
0
0
0
0
0
0
0
0
0
0
0
0
0
0
0
0
0
0
0
0
0
0
0
0
0
0
0
0
0
0
0
0
0
0
0
0
0
0
0
0
0
0
0
0
SCALARS m0s double 1
LOOKUP_TABLE table2
0
0
0
0
0
0
0
0
0
0
0
0
0
0
0
0
0
0
0
0
0
0
0
0
0
0
0
0
0
0
0
0
0
0
0
0
0
0
0
0
0
0
0
0
0
0
0
0
0
0
0
0
0
0
0
0
0
0
0
0
0
0
0
0
0
0
0
0
0
0
0
0
0
0
0
0
0
0
0
0
0
0
0
0
0
0
0
0
0
0
0
0
0
0
0
0
0
0
0
0
0
0
0
0
0
0
0
0
0
0
0
0
0
0
0
0
0
0
0
0
0
0
0
0
0
0
0
0
0
0
0
0
0
0
0
0
0
0
0
0
0
0
0
0
0
0
0
0
0
0
0
0
0
0
0
0
0
0
0
0
0
0
0
0
0
0
0
0
0
0
0
0
0
0
0
0
0
0
0
0
0
0
0
0
0
0
0
0
0
0
0
0
0
0
0
0
0
0
0
0
0
0
0
0
0
0
0
0
0
0
0
0
0
0
0
0
0
0
0
0
0
0
0
0
0
0
0
0
0
0
0
0
0
0
0
0
0
0
0
0
0
0
0
0
0
0
0
0
0
0
0
0
0
0
0
0
0
0
0
0
0
0
0
0
0
0
0
0
0
0
0
0
0
0
0
0
0
0
0
0
0
0
0
0
0
0
0
0
0
0
0
0
0
0
0
0
0
0
0
0
0
0
0
0
0
0
0
0
0
0
0
0
0
0
0
0
0
0
0
0
0
0
0
0
0
0
0
0
0
0
0
0
0
0
0
0
0
0
0
0
0
0
0
0
0
0
0
0
0
0
0
0
0
0
0
0
0
0
0
0
0
0
0
0
0
0
0
0
0
0
0
0
0
0
0
0
0
0
0
0
0
0
0
0
0
0
0
0
0
0
0
0
0
0
0
0
0
0
0
0
0
0
0
0
0
0
0
0
0
0
0
0
0
0
0
0
0
0
0
0
0
0
0
0
0
0
0
0
0
0
0
0
0
0
0
0
0
0
0
0
0
0
0
0
0
0
0
0
0
0
0
0
0
0
0
0
0
0
0
0
0
0
0
0
0
0
0
0
0
0
0
0
0
0
0
0
0
0
0
0
0
0
0
0
0
0
0
0
0
0
0
0
0
0
0
0
0
0
0
0
0
0
0
0
0
0
0
0
0
0
0
0
0
0
0
0
0
0
0
0
0
0
0
0
0
0
0
0
0
0
0
0
0
0
0
0
0
0
0
0
0
0
0
0
0
0
0
0
0
0
0
0
0
0
0
0
0
0
0
0
0
0
0
0
0
0
0
0
0
0
0
0
0
0
0
0
0
0
0
0
0
0
0
0
0
0
0
0
0
0
0
0
0
0
0
0
0
0
0
0
0
0
0
0
0
0
0
0
0
0
0
0
0
0
0
0
0
0
0
0
0
0
0
0
0
0
0
0
0
0
0
0
0
0
0
0
0
0
0
0
0
0
0
0
0
0
0
0
0
0
0
0
0
0
0
0
0
0
0
0
0
0
0
0
0
0
0
0
0
0
0
0
0
0
0
0
0
0
0
0
0
0
0
0
0
0
0
0
0
0
0
0
0
0
0
0
0
0
0
0
0
0
0
0
0
0
0
0
0
0
0
0
0
0
0
0
0
0
0
0
0
0
0
0
0
0
0
0
0
0
0
0
0
0
0
0
0
0
0
0
0
0
0
0
0
0
0
0
0
0
0
0
0
0
0
0
0
0
0
0
0
0
0
0
0
0
0
0
0
0
0
0
0
0
0
0
0
0
0
0
0
0
0
0
0
0
0
0
0
0
0
0
0
0
0
0
0
0
0
0
0
0
0
0
0
0
0
0
0
0
0
0
0
0
0
0
0
0
0
0
0
0
0
0
0
0
0
0
0
0
0
0
0
0
0
0
0
0
0
0
0
0
0
0
0
0
0
0
0
0
0
0
0
0
0
0
0
0
0
0
0
0
0
0
0
0
0
0
0
0
0
0
0
0
0
0
0
0
0
0
0
0
0
0
0
0
0
0
0
0
0
0
0
0
0
0
0
0
0
0
0
0
0
0
0
0
0
0
0
0
0
0
0
0
0
0
0
0
0
0
0
0
0
0
0
0
0
0
0
0
0
0
0
0
0
0
0
0
0
0
0
0
0
0
0
0
0
0
0
0
0
0
0
0
0
0
0
0
0
0
0
0
0
0
0
0
0
0
0
0
0
0
0
0
0
0
0
0
0
0
0
0
0
0
0
0
0
0
0
0
0
0
0
0
0
0
0
0
0
0
0
0
0
0
0
0
0
0
0
0
0
0
0
0
0
0
0
0
0
0
0
0
0
0
0
0
0
0
0
0
0
0
0
0
0
0
0
0
0
0
0
0
0
0
0
0
0
0
0
0
0
0
0
0
0
0
0
0
0
0
0
0
0
0
0
0
0
0
0
0
0
0
0
0
0
0
0
0
0
0
0
0
0
0
0
0
0
0
0
0
0
0
0
0
0
0
0
0
0
0
0
0
0
0
0
0
0
0
0
0
0
0
0
0
0
0
0
0
0
0
0
0
0
0
0
0
0
0
0
0
0
0
0
0
0
0
0
0
0
0
0
0
0
0
0
0
0
0
0
0
0
0
0
0
0
0
0
0
0
0
0
0
0
0
0
0
0
0
0
0
0
0
0
0
0
0
0
0
0
0
0
0
0
0
0
0
0
0
0
0
0
0
0
0
0
0
0
0
0
0
0
0
0
0
0
0
0
0
0
0
0
0
0
0
0
0
0
0
0
0
0
0
0
0
0
0
0
0
0
0
0
0
0
0
0
0
0
0
0
0
0
0
0
0
0
0
0
0
0
0
0
0
0
0
0
0
0
0
0
0
0
0
0
0
0
0
0
0
0
0
0
0
0
0
0
0
0
0
0
0
0
0
0
0
0
0
0
0
0
0
0
0
0
0
0
0
0
0
0
0
0
0
0
0
0
0
0
0
0
0
0
0
0
0
0
0
0
0
0
0
0
0
0
0
0
0
0
0
0
0
0
0
0
0
0
0
0
0
0
0
0
0
0
0
0
0
0
0
0
0
0
0
0
0
0
0
0
0
0
0
0
0
0
0
0
0
0
0
0
0
0
0
0
0
0
0
0
0
0
0
0
0
0
0
0
0
0
0
0
0
0
0
0
0
0
0
0
0
0
0
0
0
0
0
0
0
0
0
0
0
0
0
0
0
0
0
0
0
0
0
0
0
0
0
0
0
0
0
0
0
0
0
0
0
0
0
0
0
0
0
0
0
0
0
0
0
0
0
0
0
0
0
0
0
0
0
0
0
0
0
0
0
0
0
0
0
0
0
0
0
0
0
0
0
0
0
0
0
0
0
0
0
0
0
0
0
0
0
0
0
0
0
0
0
0
0
0
0
0
0
0
0
0
0
0
0
0
0
0
0
0
0
0
0
0
0
0
0
0
0
0
0
0
0
0
0
0
0
0

POINT_DATA	1529
SCALARS model double 1
LOOKUP_TABLE table0
0.326285
-0.922586
-0.428783
0.276212
0.328068
0.598592
-0.668313
-0.363394
-0.376241
-0.305112
0.337868
0.734218
-0.309729
-0.406423
0.0245729
0.803813
-4.06375
-1.96077
-2.82213
-3.3161
0.594984
-1.04383
-1.84001
-2.63633
-3.28926
0.315708
-0.10012
-1.87019
-2.69358
-3.38169
0.304595
-0.236783
-1.89412
-2.71422
-3.2421
0.323312
-0.527873
-1.80731
-1.36054
-1.70105
0.122928
0.441171
-0.400825
-0.808756
-1.11778
-0.0681346
0.675297
-0.116971
-0.684789
-0.876359
0.400216
1.01294
0.3197
0.383653
0.382798
0.934196
-6.9038
-1.00659
-0.504762
-0.568984
1.07682
2.23181
-0.429806
-0.3277
-0.380404
1.30869
3.60978
-0.638821
-0.544808
-0.650181
0.473579
3.2505
-1.12885
-1.79809
-2.32996
-0.345583
-0.408458
-1.29825
-2.05661
-2.64333
0.300651
-0.255197
-1.34809
-2.29647
-2.89875