# vtk DataFile Version 3.0
Gravity effects
ASCII
DATASET UNSTRUCTURED_GRID

POINTS	1681	double
0	0	-0.1
50	0	-0.1
100	0	-0.1
150	0	-0.1
200	0	-0.1
250	0	-0.1
300	0	-0.1
350	0	-0.1
400	0	-0.1
450	0	-0.1
500	0	-0.1
550	0	-0.1
600	0	-0.1
650	0	-0.1
700	0	-0.1
750	0	-0.1
800	0	-0.1
850	0	-0.1
900	0	-0.1
950	0	-0.1
1000	0	-0.1
1050	0	-0.1
1100	0	-0.1
1150	0	-0.1
1200	0	-0.1
1250	0	-0.1
1300	0	-0.1
1350	0	-0.1
1400	0	-0.1
1450	0	-0.1
1500	0	-0.1
1550	0	-0.1
1600	0	-0.1
1650	0	-0.1
1700	0	-0.1
1750	0	-0.1
1800	0	-0.1
1850	0	-0.1
1900	0	-0.1
1950	0	-0.1
2000	0	-0.1
0	50	-0.1
50	50	-0.1
100	50	-0.1
150	50	-0.1
200	50	-0.1
250	50	-0.1
300	50	-0.1
350	50	-0.1
400	50	-0.1
450	50	-0.1
500	50	-0.1
550	50	-0.1
600	50	-0.1
650	50	-0.1
700	50	-0.1
750	50	-0.1
800	50	-0.1
850	50	-0.1
900	50	-0.1
950	50	-0.1
1000	50	-0.1
1050	50	-0.1
1100	50	-0.1
1150	50	-0.1
1200	50	-0.1
1250	50	-0.1
1300	50	-0.1
1350	50	-0.1
1400	50	-0.1
1450	50	-0.1
1500	50	-0.1
1550	50	-0.1
1600	50	-0.1
1650	50	-0.1
1700	50	-0.1
1750	50	-0.1
1800	50	-0.1
1850	50	-0.1
1900	50	-0.1
1950	50	-0.1
2000	50	-0.1
0	100	-0.1
50	100	-0.1
100	100	-0.1
150	100	-0.1
200	100	-0.1
250	100	-0.1
300	100	-0.1
350	100	-0.1
400	100	-0.1
450	100	-0.1
500	100	-0.1
550	100	-0.1
600	100	-0.1
650	100	-0.1
700	100	-0.1
750	100	-0.1
800	100	-0.1
850	100	-0.1
900	100	-0.1
950	100	-0.1
1000	100	-0.1
1050	100	-0.1
1100	100	-0.1
1150	100	-0.1
1200	100	-0.1
1250	100	-0.1
1300	100	-0.1
1350	100	-0.1
1400	100	-0.1
1450	100	-0.1
1500	100	-0.1
1550	100	-0.1
1600	100	-0.1
1650	100	-0.1
1700	100	-0.1
1750	100	-0.1
1800	100	-0.1
1850	100	-0.1
1900	100	-0.1
1950	100	-0.1
2000	100	-0.1
0	150	-0.1
50	150	-0.1
100	150	-0.1
150	150	-0.1
200	150	-0.1
250	150	-0.1
300	150	-0.1
350	150	-0.1
400	150	-0.1
450	150	-0.1
500	150	-0.1
550	150	-0.1
600	150	-0.1
650	150	-0.1
700	150	-0.1
750	150	-0.1
800	150	-0.1
850	150	-0.1
900	150	-0.1
950	150	-0.1
1000	150	-0.1
1050	150	-0.1
1100	150	-0.1
1150	150	-0.1
1200	150	-0.1
1250	150	-0.1
1300	150	-0.1
1350	150	-0.1
1400	150	-0.1
1450	150	-0.1
1500	150	-0.1
1550	150	-0.1
1600	150	-0.1
1650	150	-0.1
1700	150	-0.1
1750	150	-0.1
1800	150	-0.1
1850	150	-0.1
1900	150	-0.1
1950	150	-0.1
2000	150	-0.1
0	200	-0.1
50	200	-0.1
100	200	-0.1
150	200	-0.1
200	200	-0.1
250	200	-0.1
300	200	-0.1
350	200	-0.1
400	200	-0.1
450	200	-0.1
500	200	-0.1
550	200	-0.1
600	200	-0.1
650	200	-0.1
700	200	-0.1
750	200	-0.1
800	200	-0.1
850	200	-0.1
900	200	-0.1
950	200	-0.1
1000	200	-0.1
1050	200	-0.1
1100	200	-0.1
1150	200	-0.1
1200	200	-0.1
1250	200	-0.1
1300	200	-0.1
1350	200	-0.1
1400	200	-0.1
1450	200	-0.1
1500	200	-0.1
1550	200	-0.1
1600	200	-0.1
1650	200	-0.1
1700	200	-0.1
1750	200	-0.1
1800	200	-0.1
1850	200	-0.1
1900	200	-0.1
1950	200	-0.1
2000	200	-0.1
0	250	-0.1
50	250	-0.1
100	250	-0.1
150	250	-0.1
200	250	-0.1
250	250	-0.1
300	250	-0.1
350	250	-0.1
400	250	-0.1
450	250	-0.1
500	250	-0.1
550	250	-0.1
600	250	-0.1
650	250	-0.1
700	250	-0.1
750	250	-0.1
800	250	-0.1
850	250	-0.1
900	250	-0.1
950	250	-0.1
1000	250	-0.1
1050	250	-0.1
1100	250	-0.1
1150	250	-0.1
1200	250	-0.1
1250	250	-0.1
1300	250	-0.1
1350	250	-0.1
1400	250	-0.1
1450	250	-0.1
1500	250	-0.1
1550	250	-0.1
1600	250	-0.1
1650	250	-0.1
1700	250	-0.1
1750	250	-0.1
1800	250	-0.1
1850	250	-0.1
1900	250	-0.1
1950	250	-0.1
2000	250	-0.1
0	300	-0.1
50	300	-0.1
100	300	-0.1
150	300	-0.1
200	300	-0.1
250	300	-0.1
300	300	-0.1
350	300	-0.1
400	300	-0.1
450	300	-0.1
500	300	-0.1
550	300	-0.1
600	300	-0.1
650	300	-0.1
700	300	-0.1
750	300	-0.1
800	300	-0.1
850	300	-0.1
900	300	-0.1
950	300	-0.1
1000	300	-0.1
1050	300	-0.1
1100	300	-0.1
1150	300	-0.1
1200	300	-0.1
1250	300	-0.1
1300	300	-0.1
1350	300	-0.1
1400	300	-0.1
1450	300	-0.1
1500	300	-0.1
1550	300	-0.1
1600	300	-0.1
1650	300	-0.1
1700	300	-0.1
1750	300	-0.1
1800	300	-0.1
1850	300	-0.1
1900	300	-0.1
1950	300	-0.1
2000	300	-0.1
0	350	-0.1
50	350	-0.1
100	350	-0.1
150	350	-0.1
200	350	-0.1
250	350	-0.1
300	350	-0.1
350	350	-0.1
400	350	-0.1
450	350	-0.1
500	350	-0.1
550	350	-0.1
600	350	-0.1
650	350	-0.1
700	350	-0.1
750	350	-0.1
800	350	-0.1
850	350	-0.1
900	350	-0.1
950	350	-0.1
1000	350	-0.1
1050	350	-0.1
1100	350	-0.1
1150	350	-0.1
1200	350	-0.1
1250	350	-0.1
1300	350	-0.1
1350	350	-0.1
1400	350	-0.1
1450	350	-0.1
1500	350	-0.1
1550	350	-0.1
1600	350	-0.1
1650	350	-0.1
1700	350	-0.1
1750	350	-0.1
1800	350	-0.1
1850	350	-0.1
1900	350	-0.1
1950	350	-0.1
2000	350	-0.1
0	400	-0.1
50	400	-0.1
100	400	-0.1
150	400	-0.1
200	400	-0.1
250	400	-0.1
300	400	-0.1
350	400	-0.1
400	400	-0.1
450	400	-0.1
500	400	-0.1
550	400	-0.1
600	400	-0.1
650	400	-0.1
700	400	-0.1
750	400	-0.1
800	400	-0.1
850	400	-0.1
900	400	-0.1
950	400	-0.1
1000	400	-0.1
1050	400	-0.1
1100	400	-0.1
1150	400	-0.1
1200	400	-0.1
1250	400	-0.1
1300	400	-0.1
1350	400	-0.1
1400	400	-0.1
1450	400	-0.1
1500	400	-0.1
1550	400	-0.1
1600	400	-0.1
1650	400	-0.1
1700	400	-0.1
1750	400	-0.1
1800	400	-0.1
1850	400	-0.1
1900	400	-0.1
1950	400	-0.1
2000	400	-0.1
0	450	-0.1
50	450	-0.1
100	450	-0.1
150	450	-0.1
200	450	-0.1
250	450	-0.1
300	450	-0.1
350	450	-0.1
400	450	-0.1
450	450	-0.1
500	450	-0.1
550	450	-0.1
600	450	-0.1
650	450	-0.1
700	450	-0.1
750	450	-0.1
800	450	-0.1
850	450	-0.1
900	450	-0.1
950	450	-0.1
1000	450	-0.1
1050	450	-0.1
1100	450	-0.1
1150	450	-0.1
1200	450	-0.1
1250	450	-0.1
1300	450	-0.1
1350	450	-0.1
1400	450	-0.1
1450	450	-0.1
1500	450	-0.1
1550	450	-0.1
1600	450	-0.1
1650	450	-0.1
1700	450	-0.1
1750	450	-0.1
1800	450	-0.1
1850	450	-0.1
1900	450	-0.1
1950	450	-0.1
2000	450	-0.1
0	500	-0.1
50	500	-0.1
100	500	-0.1
150	500	-0.1
200	500	-0.1
250	500	-0.1
300	500	-0.1
350	500	-0.1
400	500	-0.1
450	500	-0.1
500	500	-0.1
550	500	-0.1
600	500	-0.1
650	500	-0.1
700	500	-0.1
750	500	-0.1
800	500	-0.1
850	500	-0.1
900	500	-0.1
950	500	-0.1
1000	500	-0.1
1050	500	-0.1
1100	500	-0.1
1150	500	-0.1
1200	500	-0.1
1250	500	-0.1
1300	500	-0.1
1350	500	-0.1
1400	500	-0.1
1450	500	-0.1
1500	500	-0.1
1550	500	-0.1
1600	500	-0.1
1650	500	-0.1
1700	500	-0.1
1750	500	-0.1
1800	500	-0.1
1850	500	-0.1
1900	500	-0.1
1950	500	-0.1
2000	500	-0.1
0	550	-0.1
50	550	-0.1
100	550	-0.1
150	550	-0.1
200	550	-0.1
250	550	-0.1
300	550	-0.1
350	550	-0.1
400	550	-0.1
450	550	-0.1
500	550	-0.1
550	550	-0.1
600	550	-0.1
650	550	-0.1
700	550	-0.1
750	550	-0.1
800	550	-0.1
850	550	-0.1
900	550	-0.1
950	550	-0.1
1000	550	-0.1
1050	550	-0.1
1100	550	-0.1
1150	550	-0.1
1200	550	-0.1
1250	550	-0.1
1300	550	-0.1
1350	550	-0.1
1400	550	-0.1
1450	550	-0.1
1500	550	-0.1
1550	550	-0.1
1600	550	-0.1
1650	550	-0.1
1700	550	-0.1
1750	550	-0.1
1800	550	-0.1
1850	550	-0.1
1900	550	-0.1
1950	550	-0.1
2000	550	-0.1
0	600	-0.1
50	600	-0.1
100	600	-0.1
150	600	-0.1
200	600	-0.1
250	600	-0.1
300	600	-0.1
350	600	-0.1
400	600	-0.1
450	600	-0.1
500	600	-0.1
550	600	-0.1
600	600	-0.1
650	600	-0.1
700	600	-0.1
750	600	-0.1
800	600	-0.1
850	600	-0.1
900	600	-0.1
950	600	-0.1
1000	600	-0.1
1050	600	-0.1
1100	600	-0.1
1150	600	-0.1
1200	600	-0.1
1250	600	-0.1
1300	600	-0.1
1350	600	-0.1
1400	600	-0.1
1450	600	-0.1
1500	600	-0.1
1550	600	-0.1
1600	600	-0.1
1650	600	-0.1
1700	600	-0.1
1750	600	-0.1
1800	600	-0.1
1850	600	-0.1
1900	600	-0.1
1950	600	-0.1
2000	600	-0.1
0	650	-0.1
50	650	-0.1
100	650	-0.1
150	650	-0.1
200	650	-0.1
250	650	-0.1
300	650	-0.1
350	650	-0.1
400	650	-0.1
450	650	-0.1
500	650	-0.1
550	650	-0.1
600	650	-0.1
650	650	-0.1
700	650	-0.1
750	650	-0.1
800	650	-0.1
850	650	-0.1
900	650	-0.1
950	650	-0.1
1000	650	-0.1
1050	650	-0.1
1100	650	-0.1
1150	650	-0.1
1200	650	-0.1
1250	650	-0.1
1300	650	-0.1
1350	650	-0.1
1400	650	-0.1
1450	650	-0.1
1500	650	-0.1
1550	650	-0.1
1600	650	-0.1
1650	650	-0.1
1700	650	-0.1
1750	650	-0.1
1800	650	-0.1
1850	650	-0.1
1900	650	-0.1
1950	650	-0.1
2000	650	-0.1
0	700	-0.1
50	700	-0.1
100	700	-0.1
150	700	-0.1
200	700	-0.1
250	700	-0.1
300	700	-0.1
350	700	-0.1
400	700	-0.1
450	700	-0.1
500	700	-0.1
550	700	-0.1
600	700	-0.1
650	700	-0.1
700	700	-0.1
750	700	-0.1
800	700	-0.1
850	700	-0.1
900	700	-0.1
950	700	-0.1
1000	700	-0.1
1050	700	-0.1
1100	700	-0.1
1150	700	-0.1
1200	700	-0.1
1250	700	-0.1
1300	700	-0.1
1350	700	-0.1
1400	700	-0.1
1450	700	-0.1
1500	700	-0.1
1550	700	-0.1
1600	700	-0.1
1650	700	-0.1
1700	700	-0.1
1750	700	-0.1
1800	700	-0.1
1850	700	-0.1
1900	700	-0.1
1950	700	-0.1
2000	700	-0.1
0	750	-0.1
50	750	-0.1
100	750	-0.1
150	750	-0.1
200	750	-0.1
250	750	-0.1
300	750	-0.1
350	750	-0.1
400	750	-0.1
450	750	-0.1
500	750	-0.1
550	750	-0.1
600	750	-0.1
650	750	-0.1
700	750	-0.1
750	750	-0.1
800	750	-0.1
850	750	-0.1
900	750	-0.1
950	750	-0.1
1000	750	-0.1
1050	750	-0.1
1100	750	-0.1
1150	750	-0.1
1200	750	-0.1
1250	750	-0.1
1300	750	-0.1
1350	750	-0.1
1400	750	-0.1
1450	750	-0.1
1500	750	-0.1
1550	750	-0.1
1600	750	-0.1
1650	750	-0.1
1700	750	-0.1
1750	750	-0.1
1800	750	-0.1
1850	750	-0.1
1900	750	-0.1
1950	750	-0.1
2000	750	-0.1
0	800	-0.1
50	800	-0.1
100	800	-0.1
150	800	-0.1
200	800	-0.1
250	800	-0.1
300	800	-0.1
350	800	-0.1
400	800	-0.1
450	800	-0.1
500	800	-0.1
550	800	-0.1
600	800	-0.1
650	800	-0.1
700	800	-0.1
750	800	-0.1
800	800	-0.1
850	800	-0.1
900	800	-0.1
950	800	-0.1
1000	800	-0.1
1050	800	-0.1
1100	800	-0.1
1150	800	-0.1
1200	800	-0.1
1250	800	-0.1
1300	800	-0.1
1350	800	-0.1
1400	800	-0.1
1450	800	-0.1
1500	800	-0.1
1550	800	-0.1
1600	800	-0.1
1650	800	-0.1
1700	800	-0.1
1750	800	-0.1
1800	800	-0.1
1850	800	-0.1
1900	800	-0.1
1950	800	-0.1
2000	800	-0.1
0	850	-0.1
50	850	-0.1
100	850	-0.1
150	850	-0.1
200	850	-0.1
250	850	-0.1
300	850	-0.1
350	850	-0.1
400	850	-0.1
450	850	-0.1
500	850	-0.1
550	850	-0.1
600	850	-0.1
650	850	-0.1
700	850	-0.1
750	850	-0.1
800	850	-0.1
850	850	-0.1
900	850	-0.1
950	850	-0.1
1000	850	-0.1
1050	850	-0.1
1100	850	-0.1
1150	850	-0.1
1200	850	-0.1
1250	850	-0.1
1300	850	-0.1
1350	850	-0.1
1400	850	-0.1
1450	850	-0.1
1500	850	-0.1
1550	850	-0.1
1600	850	-0.1
1650	850	-0.1
1700	850	-0.1
1750	850	-0.1
1800	850	-0.1
1850	850	-0.1
1900	850	-0.1
1950	850	-0.1
2000	850	-0.1
0	900	-0.1
50	900	-0.1
100	900	-0.1
150	900	-0.1
200	900	-0.1
250	900	-0.1
300	900	-0.1
350	900	-0.1
[...]
CELL_DATA	1681
SCALARS g_z double 1
LOOKUP_TABLE table0
0.0301334
0.0317035
0.0332384
0.0345033
0.0362348
0.0350096
0.0384569
0.0378835
0.0374279
0.0372958
0.0354738
0.03527
0.0335226
0.0315839
0.0271666
0.0229968
0.0197283
0.0148788
0.0102452
0.00481662
5.93903e-14
-0.00505815
-0.00997598
-0.0153089
-0.0192189
-0.0228999
-0.0275315
-0.0299332
-0.0333436
-0.035713
-0.0348816
-0.0384282
-0.038285
-0.0387431
-0.0367801
-0.036363
-0.0366765
-0.0344501
-0.0329233
-0.0319825
-0.0306844
0.0330262
0.0365848
0.0373742
0.0392994
0.0407046
0.041995
0.0458097
0.045007
0.0455207
0.0457568
0.0435502
0.0425163
0.0405763
0.035936
0.0326369
0.0283384
0.0225489
0.0181258
0.0123936
0.00601116
4.85621e-14
-0.00629064
-0.0117681
-0.0180294
-0.0240641
-0.0283959
-0.0327705
-0.0365487
-0.0380362
-0.0432956
-0.0437327
-0.0448615
-0.0451715
-0.0439802
-0.044564
-0.0434674
-0.0406552
-0.0402047
-0.0373053
-0.036767
-0.0352974
0.0389329
0.040798
0.0443265
0.0462566
0.0469329
0.05049
0.0519338
0.0543021
0.0526287
0.05244
0.0514053
0.0480828
0.0488069
0.0435953
0.0388021
0.034302
0.0282802
0.0215161
0.0149368
0.00763835
2.98306e-14
-0.00741574
-0.0151662
-0.0220654
-0.0282144
-0.0341288
-0.0396112
-0.0443708
-0.0472364
-0.0492493
-0.0517308
-0.0533512
-0.0540847
-0.0530752
-0.0509888
-0.0511218
-0.0491647
-0.0473265
-0.0451235
-0.0415311
-0.0375271
0.0442717
0.0468919
0.0501288
0.0526903
0.0561498
0.0578144
0.0618974
0.06201
0.0622462
0.0657639
0.0622901
0.0589377
0.0564684
0.0526413
0.0474527
0.0424429
0.0338242
0.0262034
0.0188257
0.00950968
7.33264e-15
-0.00917631
-0.0183219
-0.0277718
-0.0329375
-0.0426424
-0.048755
-0.0513917
-0.0559797
-0.0588518
-0.064142
-0.0619253
-0.0630366
-0.0615198
-0.0604322
-0.0593482
-0.0572448
-0.0545893
-0.0487088
-0.0480806
-0.0429545
0.0514246
0.0532997
0.0592833
0.0626521
0.06384
0.0700243
0.0718201
0.073917
0.0725793
0.0770229
0.0745498
0.0725941
0.0709461
0.0632232
0.0570218
0.0506898
0.041423
0.0329862
0.0220791
0.0111755
3.4725e-14
-0.0110401
-0.0218918
-0.0315359
-0.0440921
-0.0522158
-0.0575739
-0.0644765
-0.0696451
-0.0769418
-0.0739169
-0.0752813
-0.0724353
-0.0730022
-0.0709291
-0.0667839
-0.0648033
-0.0602112
-0.0566932
-0.053134
-0.0496122
0.0539714
0.0617775
0.06339
0.0713861
0.0736893
0.0812934
0.0840457
0.08818
0.0895665
0.0906543
0.0897381
0.0915217
0.0855982
0.0777599
0.0735989
0.0641686
0.0527797
0.0402837
0.0280941
0.0136357
8.97422e-15
-0.0133493
-0.027432
-0.040985
-0.051261
-0.0631314
-0.0701317
-0.0778339
-0.0842234
-0.0912606
-0.0921738
-0.0920321
-0.0892665
-0.0867038
-0.0859883
-0.0808401
-0.0779894
-0.0713039
-0.0659918
-0.0612497
-0.0564059
0.0658266
0.0712239
0.0760133
0.0829109
0.0864414
0.097318
0.100681
0.104984
0.106713
0.113587
0.106467
0.10555
0.102872
0.0972999
0.0901279
0.0772517
0.0643547
0.0505351
0.0349369
0.0167771
6.13923e-14
-0.0168656
-0.0325843
-0.0499959
-0.063449
-0.0773099
-0.0912061
-0.0972722
-0.102665
-0.109617
-0.107941
-0.108038
-0.103471
-0.10739
-0.100326
-0.0956107
-0.0896284
-0.0831349
-0.0775372
-0.0670351
-0.0633427
0.0728678
0.0789661
0.0869021
0.0990559
0.102847
0.11114
0.117256
0.125427
0.128745
0.135375
0.137759
0.133805
0.126016
0.120187
0.111634
0.0954782
0.0788731
0.0617158
0.0429289
0.0211966
1.70653e-14
-0.0202548
-0.0423245
-0.064376
-0.0804855
-0.0991523
-0.108311
-0.123418
-0.12647
-0.133909
-0.136555
-0.13422
-0.132185
-0.126657
-0.120996
-0.112501
-0.106577
-0.0944109
-0.0889864
-0.0789261
-0.0733861
0.0797055
0.088861
0.100179
0.109153
0.121298
0.129058
0.144922
0.149777
0.156825
0.166695
0.162779
0.164745
0.158515
0.148741
0.133995
0.119979
0.100441
0.0765436
0.0519984
0.0257223
1.6165e-14
-0.0277628
-0.051463
-0.0788114
-0.0993804
-0.122386
-0.138708
-0.148984
-0.159425
-0.16602
-0.163786
-0.16259
-0.154964
-0.149937
-0.139401
-0.130657
-0.122727
-0.111908
-0.0986588
-0.0910017
-0.0818542
0.0889161
0.104502
0.121087
0.133841
0.141548
0.152706
0.166899
0.18803
0.195006
0.192993
0.204788
0.1974
0.198547
0.179227
0.172917
0.151956
0.123605
0.0954292
0.065368
0.0340946
1.18389e-14
-0.0327822
-0.0655247
-0.0973292
-0.12553
-0.15441
-0.171161
-0.184443
-0.193184
-0.193099
-0.204168
-0.206322
-0.187906
-0.183394
-0.173102
-0.148131
-0.142397
-0.128086
-0.117026
-0.104676
-0.094262
0.104627
0.113981
0.132974
0.148488
0.166951
0.184659
0.210536
0.22013
0.233472
0.242557
0.256354
0.249338
0.247182
0.231763
0.209687
0.194508
0.160526
0.119521
0.0819269
0.0417956
-8.93835e-16
-0.0436152
-0.0855376
-0.118221
-0.157848
-0.184414
-0.215782
-0.231924
-0.243176
-0.252637
-0.248998
-0.233082
-0.232388
-0.222038
-0.197504
-0.179966
-0.167132
-0.146362
-0.132522
-0.114532
-0.103143
0.113784
0.130313
0.149429
0.163246
0.193712
0.219293
0.24293
0.260815
0.290924
0.299167
0.307185
0.313434
0.298971
0.293945
0.280234
0.234115
0.205114
0.156386
0.103033
0.051134
1.13494e-14
-0.0528342
-0.103394
-0.152977
-0.198947
-0.242119
-0.269379
-0.308046
-0.309233
-0.315545
-0.317898
-0.293578
-0.284571
-0.264536
-0.23927
-0.22155
-0.192166
-0.172308
-0.148052
-0.132712
-0.116347
0.128919
0.140888
0.170106
0.191042
0.215654
0.257093
0.287332
0.322512
0.346224
0.373828
0.379066
0.389925
0.371149
0.377669
0.329312
0.293758
0.245721
0.187221
0.128166
0.0664189
-7.36167e-16
-0.0620747
-0.128205
-0.195467
-0.248371
-0.308648
-0.332844
-0.362879
-0.379904
-0.398547
-0.377294
-0.360252
-0.361717
-0.314119
-0.270298
-0.249387
-0.225527
-0.202555
-0.173647
-0.142949
-0.126565
0.134938
0.164846
0.189943
0.217424
0.257018
0.289907
0.330932
0.374147
0.412357
0.462409
0.448104
0.486153
0.470581
0.456521
0.409055
0.36758
0.301618
0.240318
0.151535
0.0803771
-1.89204e-14
-0.081866
-0.159826
-0.236314
-0.303494
-0.37919
-0.435032
-0.442596
-0.467673
-0.470897
-0.458534
-0.458012
-0.413129
-0.370216
-0.316878
-0.294894
-0.249073
-0.221463
-0.190067
-0.160983
-0.14058
0.154382
0.179175
0.208128
0.242997
0.297609
0.335342
0.392446
0.440456
0.497459
0.542381
0.562883
0.582748
0.590687
0.562426
0.51518
0.464463
0.376306
0.289595
0.193801
0.0961264
-5.18776e-15
-0.0963671
-0.197149
-0.283199
-0.379294
-0.441582
-0.522261
-0.563465
-0.590298
-0.606261
-0.576969
-0.551079
-0.495367
-0.439673
-0.396224
-0.338686
-0.294489
-0.252289
-0.200393
-0.182073
-0.156869
0.165889
0.199312
0.236416
0.279947
0.310965
0.397245
0.433185
0.511165
0.580119
0.651882
0.665077
0.703261
0.671459
0.689006
0.627278
0.553335
0.447079
0.353153
0.23761
0.115492
5.11431e-15
-0.116121
-0.232122
-0.338773
-0.477688
-0.567872
-0.628104
-0.674622
-0.697774
-0.737036
-0.681541
-0.640654
-0.581633
-0.516995
-0.426862
-0.389344
-0.322261
-0.27477
-0.225206
-0.195399
-0.154716
0.172063
0.208924
0.242781
0.296703
0.346429
0.430104
0.497002
0.578957
0.68259
0.745603
0.802073
0.839846
0.829962
0.787381
0.747452
0.671066
0.534934
0.411328
0.281626
0.133574
9.55522e-15
-0.138651
-0.277272
-0.409658
-0.539916
-0.651528
-0.735826
-0.815568
-0.830222
-0.8702
-0.80716
-0.733479
-0.667462
-0.605977
-0.506927
-0.4236
-0.358495
-0.305479
-0.251018
-0.209741
-0.17595
0.190628
0.21961
0.2619
0.333706
0.38652
0.450234
0.569804
0.668167
0.741227
0.846458
0.922382
0.960179
0.985718
0.914189
0.859364
0.755288
0.599866
0.465603
0.30993
0.156416
1.7285e-14
-0.153685
-0.3139
-0.45788
-0.619821
-0.720999
-0.849958
-0.930641
-0.973925
-0.923677
-0.90339
-0.870865
-0.771036
-0.62717
-0.543409
-0.481185
-0.396559
-0.315774
-0.262737
-0.227785
-0.18776
0.192212
0.234059
0.284103
0.342565
0.406584
0.500417
0.613986
0.702002
0.845243
0.936707
1.0187
1.04657
1.08001
1.04084
0.939084
0.824577
0.673172
0.510787
0.335502
0.167193
1.1435e-14
-0.170946
-0.337781
-0.505856
-0.673889
-0.807214
-0.913709
-1.02613
-1.0469
-1.04454
-1.00847
-0.953064
-0.834617
-0.697167
-0.578533
-0.488782
-0.425788
-0.334585
-0.273706
-0.229422
-0.193511
0.196339
0.241091
0.284614
0.331352
0.424344
0.530041
0.63684
0.735503
0.877289
1.00449
1.05663
1.12125
1.08612
1.0599
0.985005
0.85415
0.709491
0.527709
0.354528
0.183784
-1.44618e-14
-0.170932
-0.357728
-0.546741
-0.701197
-0.864579
-1.02217
-1.03521
-1.11589
-1.12075
-1.08233
-1.00175
-0.847837
-0.731353
-0.619382
-0.529127
-0.426978
-0.33924
-0.281773
-0.244987
-0.202296
0.198393
0.239242
0.293804
0.365395
0.427763
0.530383
0.616644
0.749752
0.89891
0.982586
1.0804
1.17668
1.12994
1.07249
0.996379
0.876316
0.745115
0.548954
0.363627
0.180511
2.72457e-16
-0.178577
-0.354992
-0.548621
-0.730755
-0.894112
-1.0014
-1.07791
-1.12193
-1.14937
-1.11009
-1.03275
-0.882011
-0.75477
-0.622351
-0.527629
-0.443913
-0.351876
-0.291503
-0.239886
-0.198524
0.20204
0.241178
0.289276
0.348372
0.426147
0.483071
0.631777
0.75813
0.882778
0.988611
1.07531
1.10495
1.11168
1.08411
0.996018
0.878349
0.690029
0.520368
0.359953
0.184401
1.39754e-14
-0.181669
-0.340786
-0.534295
-0.715467
-0.861068
-0.960857
-1.10074
-1.10961
-1.12272
-1.09133
-0.982875
-0.861389
-0.746731
-0.615408
-0.504681
-0.423105
-0.360689
-0.284513
-0.243321
-0.200849
0.190978
0.237396
0.278092
0.339057
0.408083
0.497783
0.608065
0.73473
0.798586
0.971607
1.02998
1.06598
1.06981
1.01339
0.926147
0.838541
0.677093
0.501943
0.340001
0.171706
-1.12387e-14
-0.167003
-0.337273
-0.51247
-0.66632
-0.805763
-0.905659
-1.03133
-1.05437
-1.02736
-1.03974
-0.920354
-0.813991
-0.722147
-0.587879
-0.50803
-0.414076
-0.32485
-0.277731
-0.234261
-0.195007
0.181094
0.226119
0.253414
0.316835
0.390523
0.469324
0.535648
0.643898
0.748293
0.833214
0.905612
0.987401
0.941764
0.959951
0.863209
0.747355
0.612451
0.462614
0.309124
0.160141
-1.70085e-14
-0.152853
-0.312338
-0.466006
-0.610131
-0.757331
-0.871874
-0.916102
-0.960791
-0.974639
-0.918466
-0.846236
-0.763071
-0.659757
-0.562537
-0.45937
-0.376632
-0.323871
-0.262019
-0.22571
-0.185943
0.179692
0.215676
0.245379
0.301518
0.3537
0.428628
0.502655
0.593344
0.670833
0.738076
0.805448
0.857058
0.834029
0.805917
0.740195
0.660523
0.532678
0.421904
0.274862
0.134474
-8.69423e-15
-0.136181
-0.274221
-0.398592
-0.525843
-0.636375
-0.774832
-0.809223
-0.830367
-0.862481
-0.791766
-0.768535
-0.674878
-0.559573
-0.492988
-0.421218
-0.381704
-0.293014
-0.242671
-0.204344
-0.17467
0.16063
0.191534
0.230498
0.276628
0.328023
0.382831
0.460582
0.503299
0.575038
0.658579
0.701874
0.709774
0.725045
0.686061
0.60645
0.540207
0.4642
0.354068
0.22968
0.117565
-3.8119e-15
-0.115881
-0.226897
-0.339602
-0.464643
-0.563062
-0.617718
-0.660541
-0.712842
-0.717739
-0.687069
-0.638815
-0.588254
-0.525736
-0.437463
-0.385811
-0.31304
-0.277828
-0.236603
-0.194637
-0.170027
0.155011
0.173216
0.207846
0.249997
0.295834
0.333079
0.377868
0.444074
0.494944
0.527767
0.55235
0.600948
0.599626
0.581265
0.542414
0.452991
0.369731
0.277223
0.194334
0.0981841
6.01722e-15
-0.0951754
-0.190984
-0.28964
-0.380727
-0.465187
-0.526243
-0.560659
-0.591267
-0.57311
-0.560085
-0.540354
-0.508724
-0.457552
-0.382474
-0.341659
-0.282954
-0.247471
-0.206425
-0.181314
-0.155252
0.139041
0.165177
0.188255
0.214337
0.253191
0.294821
0.327938
0.382837
0.423129
0.444073
0.473624
0.487372
0.465168
0.457534
0.402461
0.36672
0.29919
0.237352
0.163114
0.0799327
1.88815e-14
-0.0827281
-0.161771
-0.231051
-0.303387
-0.3726
-0.417109
-0.45785
-0.487027
-0.486807
-0.472377
-0.458011
-0.411724
-0.373963
-0.327264
-0.299302
-0.255059
-0.219897
-0.194892
-0.159213
-0.139578
0.127425
0.147073
0.171791
0.193194
0.222074
0.254483
0.283979
0.31637
0.332157
0.376024
0.373511
0.395231
0.381698
0.37755
0.336537
0.28876
0.246953
0.194657
0.130602
0.0650831
7.67689e-16
-0.066108
-0.130065
-0.188764
-0.244617
-0.288573
-0.331607
-0.363796
-0.378461
-0.397323
-0.385169
-0.356904
-0.345022
-0.326236
-0.276069
-0.261599
-0.219336
-0.193473
-0.177939
-0.148583
-0.130922
0.115362
0.12835
0.153429
0.17102
0.186597
0.209513
0.238198
0.26315
0.280636
0.29713
0.304204
0.315436
0.306365
0.29274
0.268622
0.233166
0.190248
0.153733
0.106247
0.052397
-1.14602e-14
-0.0531096
-0.10328
-0.154575
-0.207878
-0.243449
-0.265809
-0.302607
-0.31248
-0.309954
-0.315849
-0.299598
-0.28399
-0.263035
-0.234999
-0.21012
-0.192261
-0.170653
-0.148437
-0.126595
-0.116404
0.102139
0.11588
0.126251
0.146341
0.170133
0.188766
0.19711
0.21423
0.23709
0.234081
0.244705
0.250405
0.242593
0.23232
0.216276
0.182682
0.153301
0.125635
0.0836806
0.0414062
1.13421e-15
-0.0421877
-0.0810889
-0.120745
-0.154736
-0.185542
-0.205925
-0.229498
-0.252174
-0.258959
-0.252595
-0.24216
-0.239333
-0.216823
-0.2062
-0.181455
-0.164472
-0.145672
-0.125611
-0.118904
-0.100748
0.0910242
0.0988879
0.111539
0.128667
0.142729
0.156303
0.168526
0.182328
0.191137
0.206954
0.198554
0.200575
0.202262
0.185674
0.169893
0.150844
0.124273
0.0964767
0.0650724
0.03363
-1.26601e-14
-0.0338953
-0.0647186
-0.101815
-0.128314
-0.149333
-0.175441
-0.18102
-0.201517
-0.202364
-0.208032
-0.195112
-0.185269
-0.180246
-0.164693
-0.158254
-0.139895
-0.132196
-0.11294
-0.102927
-0.0931796
0.08387
0.0887102
0.0987359
0.11277
0.117903
0.134724
0.140658
0.1517
0.159259
0.164361
0.164651
0.159618
0.160143
0.152545
0.137304
0.120492
0.0976456
0.0748902
0.0512243
0.0273054
-1.61722e-14
-0.026912
-0.0532822
-0.0805023
-0.100473
-0.118823
-0.134699
-0.147036
-0.161704
-0.16399
-0.16629
-0.156179
-0.164097
-0.147783
-0.139323
-0.132951
-0.125626
-0.11193
-0.0982313
-0.0900426
-0.0784231
0.0709934
0.0800596
0.0856595
0.094963
0.102245
0.114038
0.118661
0.125946
0.135987
0.13408
0.137946
0.129802
0.125981
0.122542
0.111333
0.0969159
0.0820435
0.0627983
0.0420212
0.0214193
-1.77389e-14
-0.0208101
-0.0420936
-0.0610507
-0.0779141
-0.0941021
-0.10665
-0.122676
-0.13297
-0.13256
-0.13838
-0.134137
-0.133319
-0.124362
-0.120014
-0.111677
-0.104657
-0.0964858
-0.0863148
-0.078356
-0.0695337
0.0622334
0.0696172
0.0754146
0.0835271
0.0883419
0.0960818
0.0987394
0.101139
0.111898
0.109516
0.112117
0.105553
0.10217
0.0974552
0.0878937
0.0757929
0.0665462
0.0504898
0.0337015
0.0176457
-6.24862e-14
-0.0169523
-0.0338014
-0.050215
-0.0652059
-0.079094
-0.0877132
-0.0943845
-0.104818
-0.110923
-0.111193
-0.1097
-0.104305
-0.107898
-0.0985967
-0.0936465
-0.0896102
-0.0848415
-0.0763434
-0.0723961
-0.0666393
0.0558591
0.0613175
0.0663255
0.0736143
0.0775005
0.081263
0.0821647
0.0871787
0.0890746
0.0920925
0.0890903
0.0901691
0.0808632
0.0805656
0.0724683
0.0601885
0.0529375
0.040085
0.0274118
0.0138201
-9.15873e-15
-0.0138429
-0.0268747
-0.0405403
-0.0542112
-0.0628167
-0.0739654
-0.0783396
-0.0884127
-0.0875563
-0.0917824
-0.0917232
-0.0898438
-0.0866201
-0.0831005
-0.0826133
-0.076574
-0.0752505
-0.0656936
-0.0607725
-0.0562572
0.0483827
0.055468
0.0567028
0.060201
0.0648982
0.0689625
0.0709328
0.0738883
0.0787857
0.0768445
0.0771068
0.0751384
0.0702514
0.0638704
0.0557274
0.0519878
0.0422841
0.0334856
0.022475
0.0108845
-3.68032e-14
-0.0112331
-0.0214996
-0.0320685
-0.0406821
-0.0523809
-0.0595922
-0.0628345
-0.0713494
-0.0713521
-0.0748643
-0.0763668
-0.075427
-0.0745195
-0.070759
-0.0690597
-0.0663036
-0.0594802
-0.0577885
-0.0538326
-0.0486149
0.0449622
0.0476338
0.050418
0.0527675
0.0543031
0.0577245
0.06035
0.0627059
0.06143
0.0622325
0.0642705
0.0615308
0.0578237
0.0532287
0.0488698
0.0423477
0.0336137
0.026754
0.0186029
0.00926821
-7.4578e-15
-0.00929678
-0.0181697
-0.0263537
-0.0345939
-0.0427966
-0.0472602
-0.0544943
-0.0566266
-0.0601332
-0.0628677
-0.0644139
-0.0643818
-0.0634542
-0.0608889
-0.0574827
-0.0556799
-0.0527249
-0.0506319
-0.0454509
-0.0424144
0.0385449
0.0406046
0.0445583
0.0455877
0.0476507
0.049548
0.0499024
0.0539732
0.0526999
0.0548985
0.0507312
0.0500107
0.0483227
0.0438994
0.0402449
0.0334639
0.0278141
0.0214684
0.0147316
0.00766712
-2.88588e-14
-0.0071841
-0.0149197
-0.0216682
-0.0288898
-0.03522
-0.0395934
-0.0446094
-0.0462697
-0.049418
-0.0520717
-0.0535338
-0.0516463
-0.0516532
-0.0517297
-0.0507897
-0.0487967
-0.0444379
-0.0444989
-0.0403752
-0.0396678
0.0345917
0.0368802
0.0386299
0.0403949
0.0411202
0.0429127
0.0423685
0.0440133
0.0464279
0.043501
0.0430141
0.0420452
0.0386037
0.0358229
0.0329312
0.0288567
0.0232924
0.0180982
0.011772
0.00632528
-5.11359e-14
-0.0060031
-0.0124859
-0.0178811
-0.0242276
-0.0280876
-0.0333389
-0.036614
-0.0384603
-0.0429831
-0.0429421
-0.0444058
-0.045299
-0.043983
-0.0448987
-0.0424785
-0.0410757
-0.0389445
-0.0378407
-0.0363615
-0.0354588
0.0299962
0.0331103
0.0346551
0.0343141
0.0360625
0.0381194
0.0379124
0.03798
0.0378495
0.0371461
0.0365884
0.035503
0.033671
0.0291018
0.0272986
0.0232563
0.019418
0.0148124
0.0103041
0.00516398
-6.17581e-14
-0.0048661
-0.00993702
-0.014802
-0.0195601
-0.0236603
-0.0261597
-0.0302064
-0.0334022
-0.0351065
-0.0371581
-0.0373686
-0.037479
-0.0390667
-0.0386288
-0.0368076
-0.0357717
-0.0329365
-0.0329626
-0.0312973
-0.028855

POINT_DATA	1681
SCALARS g_z double 1
LOOKUP_TABLE table0
0.0301334
0.0317035
0.0332384
0.0345033
0.0362348
0.0350096
0.0384569
0.0378835
0.0374279
0.0372958
0.0354738
0.03527
0.0335226
0.0315839
0.0271666
0.0229968
0.0197283
0.0148788
0.0102452
0.00481662
5.93903e-14
-0.00505815
-0.00997598
-0.0153089
-0.0192189
-0.0228999
-0.0275315
-0.0299332
-0.0333436
-0.035713
-0.0348816
-0.0384282
-0.038285
-0.0387431
-0.0367801
-0.036363
-0.0366765
-0.0344501
-0.0329233
-0.0319825
-0.0306844
0.0330262
0.0365848
0.0373742
0.0392994
0.0407046
0.041995
0.0458097
0.045007
0.0455207
0.0457568
0.0435502
0.0425163
0.0405763
0.035936
0.0326369
0.0283384
0.0225489
0.0181258
0.0123936
0.00601116
4.85621e-14
-0.00629064
-0.0117681
-0.0180294
-0.0240641
-0.0283959
-0.0327705
-0.0365487
-0.0380362
-0.0432956
-0.0437327
-0.0448615
-0.0451715
-0.0439802
-0.044564
-0.0434674
-0.0406552
-0.0402047
-0.0373053
-0.036767
-0.0352974
0.0389329
0.040798
0.0443265
0.0462566
0.0469329
0.05049
0.0519338
0.0543021
0.0526287
0.05244
0.0514053
0.0480828
0.0488069
0.0435953
0.0388021
0.034302
0.0282802
0.0215161
0.0149368
0.00763835
2.98306e-14
-0.00741574
-0.0151662
-0.0220654
-0.0282144
-0.0341288
-0.0396112
-0.0443708
-0.0472364
-0.0492493
-0.0517308
-0.0533512
-0.0540847
-0.0530752
-0.0509888
-0.0511218
-0.0491647
-0.0473265
-0.0451235
-0.0415311
-0.0375271
0.0442717
0.0468919
0.0501288
0.0526903
0.0561498
0.0578144
0.0618974
0.06201
0.0622462
0.0657639
0.0622901
0.0589377
0.0564684
0.0526413
0.0474527
0.0424429
0.0338242
0.0262034
0.0188257
0.00950968
7.33264e-15
-0.00917631
-0.0183219
-0.0277718
-0.0329375
-0.0426424
-0.048755
-0.0513917
-0.0559797
-0.0588518
-0.064142
-0.0619253
-0.0630366
-0.0615198
-0.0604322
-0.0593482
-0.0572448
-0.0545893
-0.0487088
-0.0480806
-0.0429545
0.0514246
0.0532997
0.0592833
0.0626521
0.06384
0.0700243
0.0718201
0.073917
0.0725793
0.0770229
0.0745498
0.0725941
0.0709461
0.0632232
0.0570218
0.0506898
0.041423
0.0329862
0.0220791
0.0111755
3.4725e-14
-0.0110401
-0.0218918
-0.0315359
-0.0440921
-0.0522158
-0.0575739
-0.0644765
-0.0696451
-0.0769418
-0.0739169
-0.0752813
-0.0724353
-0.0730022
-0.0709291
-0.0667839
-0.0648033
-0.0602112
-0.0566932
-0.053134
-0.0496122
0.0539714
0.0617775
0.06339
0.0713861
0.0736893
0.0812934
0.0840457
0.08818
0.0895665
0.0906543
0.0897381
0.0915217
0.0855982
0.0777599
0.0735989
0.0641686
0.0527797
0.0402837
0.0280941
0.0136357
8.97422e-15
-0.0133493
-0.027432
-0.040985
-0.051261
-0.0631314
-0.0701317
-0.0778339
-0.0842234
-0.0912606
-0.0921738
-0.0920321
-0.0892665
-0.0867038
-0.0859883
-0.0808401
-0.0779894
-0.0713039
-0.0659918
-0.0612497
-0.0564059
0.0658266
0.0712239
0.0760133
0.0829109
0.0864414
0.097318
0.100681
0.104984
0.106713
0.113587
0.106467
0.10555
0.102872
0.0972999
0.0901279
0.0772517
0.0643547
0.0505351
0.0349369
0.0167771
6.13923e-14
-0.0168656
-0.0325843
-0.0499959
-0.063449
-0.0773099
-0.0912061
-0.0972722
-0.102665
-0.109617
-0.107941
-0.108038
-0.103471
-0.10739
-0.100326
-0.0956107
-0.0896284
-0.0831349
-0.0775372
-0.0670351
-0.0633427
0.0728678
0.0789661
0.0869021
0.0990559
0.102847
0.11114
0.117256
0.125427
0.128745
0.135375
0.137759
0.133805
0.126016
0.120187
0.111634
0.0954782
0.0788731
0.0617158
0.0429289
0.0211966
1.70653e-14
-0.0202548
-0.0423245
-0.064376
-0.0804855
-0.0991523
-0.108311
-0.123418
-0.12647
-0.133909
-0.136555
-0.13422
-0.132185
-0.126657
-0.120996
-0.112501
-0.106577
-0.0944109
-0.0889864
-0.0789261
-0.0733861