# vtk DataFile Version 3.0
Gravity effects
ASCII
DATASET UNSTRUCTURED_GRID

POINTS	1681	double
0	0	-0.1
50	0	-0.1
100	0	-0.1
150	0	-0.1
200	0	-0.1
250	0	-0.1
300	0	-0.1
350	0	-0.1
400	0	-0.1
450	0	-0.1
500	0	-0.1
550	0	-0.1
600	0	-0.1
650	0	-0.1
700	0	-0.1
750	0	-0.1
800	0	-0.1
850	0	-0.1
900	0	-0.1
950	0	-0.1
1000	0	-0.1
1050	0	-0.1
1100	0	-0.1
1150	0	-0.1
1200	0	-0.1
1250	0	-0.1
1300	0	-0.1
1350	0	-0.1
1400	0	-0.1
1450	0	-0.1
1500	0	-0.1
1550	0	-0.1
1600	0	-0.1
1650	0	-0.1
1700	0	-0.1
1750	0	-0.1
1800	0	-0.1
1850	0	-0.1
1900	0	-0.1
1950	0	-0.1
2000	0	-0.1
0	50	-0.1
50	50	-0.1
100	50	-0.1
150	50	-0.1
200	50	-0.1
250	50	-0.1
300	50	-0.1
350	50	-0.1
400	50	-0.1
450	50	-0.1
500	50	-0.1
550	50	-0.1
600	50	-0.1
650	50	-0.1
700	50	-0.1
750	50	-0.1
800	50	-0.1
850	50	-0.1
900	50	-0.1
950	50	-0.1
1000	50	-0.1
1050	50	-0.1
1100	50	-0.1
1150	50	-0.1
1200	50	-0.1
1250	50	-0.1
1300	50	-0.1
1350	50	-0.1
1400	50	-0.1
1450	50	-0.1
1500	50	-0.1
1550	50	-0.1
1600	50	-0.1
1650	50	-0.1
1700	50	-0.1
1750	50	-0.1
1800	50	-0.1
1850	50	-0.1
1900	50	-0.1
1950	50	-0.1
2000	50	-0.1
0	100	-0.1
50	100	-0.1
100	100	-0.1
150	100	-0.1
200	100	-0.1
250	100	-0.1
300	100	-0.1
350	100	-0.1
400	100	-0.1
450	100	-0.1
500	100	-0.1
550	100	-0.1
600	100	-0.1
650	100	-0.1
700	100	-0.1
750	100	-0.1
800	100	-0.1
850	100	-0.1
900	100	-0.1
950	100	-0.1
1000	100	-0.1
1050	100	-0.1
1100	100	-0.1
1150	100	-0.1
1200	100	-0.1
1250	100	-0.1
1300	100	-0.1
1350	100	-0.1
1400	100	-0.1
1450	100	-0.1
1500	100	-0.1
1550	100	-0.1
1600	100	-0.1
1650	100	-0.1
1700	100	-0.1
1750	100	-0.1
1800	100	-0.1
1850	100	-0.1
1900	100	-0.1
1950	100	-0.1
2000	100	-0.1
0	150	-0.1
50	150	-0.1
100	150	-0.1
150	150	-0.1
200	150	-0.1
250	150	-0.1
300	150	-0.1
350	150	-0.1
400	150	-0.1
450	150	-0.1
500	150	-0.1
550	150	-0.1
600	150	-0.1
650	150	-0.1
700	150	-0.1
750	150	-0.1
800	150	-0.1
850	150	-0.1
900	150	-0.1
950	150	-0.1
1000	150	-0.1
1050	150	-0.1
1100	150	-0.1
1150	150	-0.1
1200	150	-0.1
1250	150	-0.1
1300	150	-0.1
1350	150	-0.1
1400	150	-0.1
1450	150	-0.1
1500	150	-0.1
1550	150	-0.1
1600	150	-0.1
1650	150	-0.1
1700	150	-0.1
1750	150	-0.1
1800	150	-0.1
1850	150	-0.1
1900	150	-0.1
1950	150	-0.1
2000	150	-0.1
0	200	-0.1
50	200	-0.1
100	200	-0.1
150	200	-0.1
200	200	-0.1
250	200	-0.1
300	200	-0.1
350	200	-0.1
400	200	-0.1
450	200	-0.1
500	200	-0.1
550	200	-0.1
600	200	-0.1
650	200	-0.1
700	200	-0.1
750	200	-0.1
800	200	-0.1
850	200	-0.1
900	200	-0.1
950	200	-0.1
1000	200	-0.1
1050	200	-0.1
1100	200	-0.1
1150	200	-0.1
1200	200	-0.1
1250	200	-0.1
1300	200	-0.1
1350	200	-0.1
1400	200	-0.1
1450	200	-0.1
1500	200	-0.1
1550	200	-0.1
1600	200	-0.1
1650	200	-0.1
1700	200	-0.1
1750	200	-0.1
1800	200	-0.1
1850	200	-0.1
1900	200	-0.1
1950	200	-0.1
2000	200	-0.1
0	250	-0.1
50	250	-0.1
100	250	-0.1
150	250	-0.1
200	250	-0.1
250	250	-0.1
300	250	-0.1
350	250	-0.1
400	250	-0.1
450	250	-0.1
500	250	-0.1
550	250	-0.1
600	250	-0.1
650	250	-0.1
700	250	-0.1
750	250	-0.1
800	250	-0.1
850	250	-0.1
900	250	-0.1
950	250	-0.1
1000	250	-0.1
1050	250	-0.1
1100	250	-0.1
1150	250	-0.1
1200	250	-0.1
1250	250	-0.1
1300	250	-0.1
1350	250	-0.1
1400	250	-0.1
1450	250	-0.1
1500	250	-0.1
1550	250	-0.1
1600	250	-0.1
1650	250	-0.1
1700	250	-0.1
1750	250	-0.1
1800	250	-0.1
1850	250	-0.1
1900	250	-0.1
1950	250	-0.1
2000	250	-0.1
0	300	-0.1
50	300	-0.1
100	300	-0.1
150	300	-0.1
200	300	-0.1
250	300	-0.1
300	300	-0.1
350	300	-0.1
400	300	-0.1
450	300	-0.1
500	300	-0.1
550	300	-0.1
600	300	-0.1
650	300	-0.1
700	300	-0.1
750	300	-0.1
800	300	-0.1
850	300	-0.1
900	300	-0.1
950	300	-0.1
1000	300	-0.1
1050	300	-0.1
1100	300	-0.1
1150	300	-0.1
1200	300	-0.1
1250	300	-0.1
1300	300	-0.1
1350	300	-0.1
1400	300	-0.1
1450	300	-0.1
1500	300	-0.1
1550	300	-0.1
1600	300	-0.1
1650	300	-0.1
1700	300	-0.1
1750	300	-0.1
1800	300	-0.1
1850	300	-0.1
1900	300	-0.1
1950	300	-0.1
2000	300	-0.1
0	350	-0.1
50	350	-0.1
100	350	-0.1
150	350	-0.1
200	350	-0.1
250	350	-0.1
300	350	-0.1
350	350	-0.1
400	350	-0.1
450	350	-0.1
500	350	-0.1
550	350	-0.1
600	350	-0.1
650	350	-0.1
700	350	-0.1
750	350	-0.1
800	350	-0.1
850	350	-0.1
900	350	-0.1
950	350	-0.1
1000	350	-0.1
1050	350	-0.1
1100	350	-0.1
1150	350	-0.1
1200	350	-0.1
1250	350	-0.1
1300	350	-0.1
1350	350	-0.1
1400	350	-0.1
1450	350	-0.1
1500	350	-0.1
1550	350	-0.1
1600	350	-0.1
1650	350	-0.1
1700	350	-0.1
1750	350	-0.1
1800	350	-0.1
1850	350	-0.1
1900	350	-0.1
1950	350	-0.1
2000	350	-0.1
0	400	-0.1
50	400	-0.1
100	400	-0.1
150	400	-0.1
200	400	-0.1
250	400	-0.1
300	400	-0.1
350	400	-0.1
400	400	-0.1
450	400	-0.1
500	400	-0.1
550	400	-0.1
600	400	-0.1
650	400	-0.1
700	400	-0.1
750	400	-0.1
800	400	-0.1
850	400	-0.1
900	400	-0.1
950	400	-0.1
1000	400	-0.1
1050	400	-0.1
1100	400	-0.1
1150	400	-0.1
1200	400	-0.1
1250	400	-0.1
1300	400	-0.1
1350	400	-0.1
1400	400	-0.1
1450	400	-0.1
1500	400	-0.1
1550	400	-0.1
1600	400	-0.1
1650	400	-0.1
1700	400	-0.1
1750	400	-0.1
1800	400	-0.1
1850	400	-0.1
1900	400	-0.1
1950	400	-0.1
2000	400	-0.1
0	450	-0.1
50	450	-0.1
100	450	-0.1
150	450	-0.1
200	450	-0.1
250	450	-0.1
300	450	-0.1
350	450	-0.1
400	450	-0.1
450	450	-0.1
500	450	-0.1
550	450	-0.1
600	450	-0.1
650	450	-0.1
700	450	-0.1
750	450	-0.1
800	450	-0.1
850	450	-0.1
900	450	-0.1
950	450	-0.1
1000	450	-0.1
1050	450	-0.1
1100	450	-0.1
1150	450	-0.1
1200	450	-0.1
1250	450	-0.1
1300	450	-0.1
1350	450	-0.1
1400	450	-0.1
1450	450	-0.1
1500	450	-0.1
1550	450	-0.1
1600	450	-0.1
1650	450	-0.1
1700	450	-0.1
1750	450	-0.1
1800	450	-0.1
1850	450	-0.1
1900	450	-0.1
1950	450	-0.1
2000	450	-0.1
0	500	-0.1
50	500	-0.1
100	500	-0.1
150	500	-0.1
200	500	-0.1
250	500	-0.1
300	500	-0.1
350	500	-0.1
400	500	-0.1
450	500	-0.1
500	500	-0.1
550	500	-0.1
600	500	-0.1
650	500	-0.1
700	500	-0.1
750	500	-0.1
800	500	-0.1
850	500	-0.1
900	500	-0.1
950	500	-0.1
1000	500	-0.1
1050	500	-0.1
1100	500	-0.1
1150	500	-0.1
1200	500	-0.1
1250	500	-0.1
1300	500	-0.1
1350	500	-0.1
1400	500	-0.1
1450	500	-0.1
1500	500	-0.1
1550	500	-0.1
1600	500	-0.1
1650	500	-0.1
1700	500	-0.1
1750	500	-0.1
1800	500	-0.1
1850	500	-0.1
1900	500	-0.1
1950	500	-0.1
2000	500	-0.1
0	550	-0.1
50	550	-0.1
100	550	-0.1
150	550	-0.1
200	550	-0.1
250	550	-0.1
300	550	-0.1
350	550	-0.1
400	550	-0.1
450	550	-0.1
500	550	-0.1
550	550	-0.1
600	550	-0.1
650	550	-0.1
700	550	-0.1
750	550	-0.1
800	550	-0.1
850	550	-0.1
900	550	-0.1
950	550	-0.1
1000	550	-0.1
1050	550	-0.1
1100	550	-0.1
1150	550	-0.1
1200	550	-0.1
1250	550	-0.1
1300	550	-0.1
1350	550	-0.1
1400	550	-0.1
1450	550	-0.1
1500	550	-0.1
1550	550	-0.1
1600	550	-0.1
1650	550	-0.1
1700	550	-0.1
1750	550	-0.1
1800	550	-0.1
1850	550	-0.1
1900	550	-0.1
1950	550	-0.1
2000	550	-0.1
0	600	-0.1
50	600	-0.1
100	600	-0.1
150	600	-0.1
200	600	-0.1
250	600	-0.1
300	600	-0.1
350	600	-0.1
400	600	-0.1
450	600	-0.1
500	600	-0.1
550	600	-0.1
600	600	-0.1
650	600	-0.1
700	600	-0.1
750	600	-0.1
800	600	-0.1
850	600	-0.1
900	600	-0.1
950	600	-0.1
1000	600	-0.1
1050	600	-0.1
1100	600	-0.1
1150	600	-0.1
1200	600	-0.1
1250	600	-0.1
1300	600	-0.1
1350	600	-0.1
1400	600	-0.1
1450	600	-0.1
1500	600	-0.1
1550	600	-0.1
1600	600	-0.1
1650	600	-0.1
1700	600	-0.1
1750	600	-0.1
1800	600	-0.1
1850	600	-0.1
1900	600	-0.1
1950	600	-0.1
2000	600	-0.1
0	650	-0.1
50	650	-0.1
100	650	-0.1
150	650	-0.1
200	650	-0.1
250	650	-0.1
300	650	-0.1
350	650	-0.1
400	650	-0.1
450	650	-0.1
500	650	-0.1
550	650	-0.1
600	650	-0.1
650	650	-0.1
700	650	-0.1
750	650	-0.1
800	650	-0.1
850	650	-0.1
900	650	-0.1
950	650	-0.1
1000	650	-0.1
1050	650	-0.1
1100	650	-0.1
1150	650	-0.1
1200	650	-0.1
1250	650	-0.1
1300	650	-0.1
1350	650	-0.1
1400	650	-0.1
1450	650	-0.1
1500	650	-0.1
1550	650	-0.1
1600	650	-0.1
1650	650	-0.1
1700	650	-0.1
1750	650	-0.1
1800	650	-0.1
1850	650	-0.1
1900	650	-0.1
1950	650	-0.1
2000	650	-0.1
0	700	-0.1
50	700	-0.1
100	700	-0.1
150	700	-0.1
200	700	-0.1
250	700	-0.1
300	700	-0.1
350	700	-0.1
400	700	-0.1
450	700	-0.1
500	700	-0.1
550	700	-0.1
600	700	-0.1
650	700	-0.1
700	700	-0.1
750	700	-0.1
800	700	-0.1
850	700	-0.1
900	700	-0.1
950	700	-0.1
1000	700	-0.1
1050	700	-0.1
1100	700	-0.1
1150	700	-0.1
1200	700	-0.1
1250	700	-0.1
1300	700	-0.1
1350	700	-0.1
1400	700	-0.1
1450	700	-0.1
1500	700	-0.1
1550	700	-0.1
1600	700	-0.1
1650	700	-0.1
1700	700	-0.1
1750	700	-0.1
1800	700	-0.1
1850	700	-0.1
1900	700	-0.1
1950	700	-0.1
2000	700	-0.1
0	750	-0.1
50	750	-0.1
100	750	-0.1
150	750	-0.1
200	750	-0.1
250	750	-0.1
300	750	-0.1
350	750	-0.1
400	750	-0.1
450	750	-0.1
500	750	-0.1
550	750	-0.1
600	750	-0.1
650	750	-0.1
700	750	-0.1
750	750	-0.1
800	750	-0.1
850	750	-0.1
900	750	-0.1
950	750	-0.1
1000	750	-0.1
1050	750	-0.1
1100	750	-0.1
1150	750	-0.1
1200	750	-0.1
1250	750	-0.1
1300	750	-0.1
1350	750	-0.1
1400	750	-0.1
1450	750	-0.1
1500	750	-0.1
1550	750	-0.1
1600	750	-0.1
1650	750	-0.1
1700	750	-0.1
1750	750	-0.1
1800	750	-0.1
1850	750	-0.1
1900	750	-0.1
1950	750	-0.1
2000	750	-0.1
0	800	-0.1
50	800	-0.1
100	800	-0.1
150	800	-0.1
200	800	-0.1
250	800	-0.1
300	800	-0.1
350	800	-0.1
400	800	-0.1
450	800	-0.1
500	800	-0.1
550	800	-0.1
600	800	-0.1
650	800	-0.1
700	800	-0.1
750	800	-0.1
800	800	-0.1
850	800	-0.1
900	800	-0.1
950	800	-0.1
1000	800	-0.1
1050	800	-0.1
1100	800	-0.1
1150	800	-0.1
1200	800	-0.1
1250	800	-0.1
1300	800	-0.1
1350	800	-0.1
1400	800	-0.1
1450	800	-0.1
1500	800	-0.1
1550	800	-0.1
1600	800	-0.1
1650	800	-0.1
1700	800	-0.1
1750	800	-0.1
1800	800	-0.1
1850	800	-0.1
1900	800	-0.1
1950	800	-0.1
2000	800	-0.1
0	850	-0.1
50	850	-0.1
100	850	-0.1
150	850	-0.1
200	850	-0.1
250	850	-0.1
300	850	-0.1
350	850	-0.1
400	850	-0.1
450	850	-0.1
500	850	-0.1
550	850	-0.1
600	850	-0.1
650	850	-0.1
700	850	-0.1
750	850	-0.1
800	850	-0.1
850	850	-0.1
900	850	-0.1
950	850	-0.1
1000	850	-0.1
1050	850	-0.1
1100	850	-0.1
1150	850	-0.1
1200	850	-0.1
1250	850	-0.1
1300	850	-0.1
1350	850	-0.1
1400	850	-0.1
1450	850	-0.1
1500	850	-0.1
1550	850	-0.1
1600	850	-0.1
1650	850	-0.1
1700	850	-0.1
1750	850	-0.1
1800	850	-0.1
1850	850	-0.1
1900	850	-0.1
1950	850	-0.1
2000	850	-0.1
0	900	-0.1
50	900	-0.1
100	900	-0.1
150	900	-0.1
200	900	-0.1
250	900	-0.1
300	900	-0.1
350	900	-0.1
[...]
CELL_DATA	1681
SCALARS g_z double 1
LOOKUP_TABLE table0
0.0297691
0.031393
0.0328889
0.0342726
0.0355712
0.0366836
0.037491
0.0379657
0.0379579
0.0374946
0.0366065
0.0351483
0.0330377
0.0303442
0.0271652
0.0235061
0.0194275
0.0149593
0.010151
0.00511917
-1.35594e-05
-0.00514331
-0.0101663
-0.0149628
-0.0194526
-0.0235161
-0.0270657
-0.0301209
-0.0328058
-0.0349619
-0.0364428
-0.0373974
-0.0378008
-0.0377999
-0.037533
-0.0369412
-0.0360183
-0.0348155
-0.0333872
-0.03175
-0.0299349
0.0338892
0.0360104
0.0379481
0.0397619
0.0415271
0.0430763
0.0442169
0.0449415
0.0450088
0.0445197
0.0435782
0.0419415
0.0394667
0.0362741
0.032521
0.0281824
0.0233396
0.0180084
0.0122311
0.00616778
-1.91933e-05
-0.00620738
-0.0122746
-0.0180643
-0.0234903
-0.0283799
-0.0326036
-0.0362163
-0.0394662
-0.0420541
-0.0436961
-0.0446657
-0.0448878
-0.044619
-0.0441031
-0.0432093
-0.0419128
-0.0402959
-0.0384431
-0.0363551
-0.0340407
0.0384864
0.0411318
0.0436027
0.0459465
0.0482302
0.0502703
0.0518511
0.0529378
0.0532578
0.0528981
0.0519526
0.0501556
0.0473467
0.0436476
0.0392262
0.0340657
0.0282578
0.0218289
0.0148408
0.00748802
-2.76948e-05
-0.00755072
-0.014925
-0.0219525
-0.0285072
-0.0343809
-0.0394216
-0.04368
-0.0474102
-0.0503019
-0.0520675
-0.0530062
-0.0530638
-0.0525212
-0.0516453
-0.0503202
-0.0485398
-0.0464082
-0.0440265
-0.0414059
-0.0385676
0.0436805
0.0469562
0.0500824
0.0530841
0.0560005
0.0586533
0.0608231
0.0624269
0.0631481
0.0630373
0.0621608
0.0602362
0.057088
0.0528248
0.0476123
0.0414466
0.0344369
0.0266301
0.0181198
0.00915252
-9.58101e-06
-0.00918689
-0.018198
-0.0267792
-0.0347421
-0.0418368
-0.0478845
-0.0529193
-0.0571926
-0.0603918
-0.0622427
-0.0630834
-0.0628987
-0.0619739
-0.0605812
-0.0586458
-0.0562047
-0.0533958
-0.0503449
-0.0470795
-0.0436314
0.049622
0.0537408
0.057688
0.0615156
0.0650483
0.0683126
0.0712817
0.0736256
0.075001
0.0753517
0.0746523
0.0726496
0.0691781
0.0642923
0.0581199
0.0507021
0.0421772
0.0326236
0.0221821
0.0111833
0.000134408
-0.0109387
-0.0220066
-0.0325527
-0.0422718
-0.0508819
-0.0581919
-0.0641914
-0.0691755
-0.0727708
-0.0746656
-0.0753168
-0.0749053
-0.0735723
-0.0714496
-0.0686618
-0.0653246
-0.0616228
-0.0577128
-0.0536429
-0.0494093
0.0562751
0.0613932
0.0663672
0.0712788
0.07573
0.0799347
0.0840352
0.087429
0.0897255
0.0907491
0.0903725
0.0883591
0.0845385
0.0789016
0.0715354
0.0625332
0.0520757
0.0402878
0.0273753
0.0137728
0.000250658
-0.0133045
-0.0270009
-0.0400514
-0.0520148
-0.0625608
-0.0714714
-0.0786769
-0.0845067
-0.0885262
-0.0903943
-0.0907001
-0.0898357
-0.0878155
-0.0846506
-0.0806885
-0.0761453
-0.0712678
-0.0662515
-0.0611704
-0.0559841
0.0636107
0.0698308
0.0760821
0.0824302
0.0884243
0.0942348
0.099931
0.104777
0.108271
0.110173
0.110309
0.108381
0.104155
0.0975716
0.0887076
0.0776954
0.0647781
0.0501418
0.0340724
0.0171236
0.000188081
-0.0167876
-0.0338507
-0.0500875
-0.06493
-0.0779623
-0.0888997
-0.0976049
-0.104369
-0.108761
-0.110486
-0.110216
-0.108431
-0.105191
-0.100566
-0.0950228
-0.0888944
-0.0824988
-0.0760741
-0.0697276
-0.0634313
0.0718152
0.0793682
0.0872071
0.0953936
0.103417
0.111379
0.119229
0.126019
0.131035
0.134056
0.134945
0.133258
0.128635
0.120929
0.110198
0.0966611
0.0806891
0.0625013
0.04244
0.0212606
5.3914e-05
-0.0211976
-0.0425043
-0.0627531
-0.081172
-0.0972819
-0.110754
-0.12131
-0.129134
-0.13384
-0.135246
-0.134119
-0.131073
-0.126196
-0.119615
-0.112007
-0.103904
-0.095653
-0.0874789
-0.0795611
-0.0719086
0.0811378
0.090431
0.100233
0.110708
0.121091
0.131622
0.14231
0.151658
0.157766
0.161383
0.163367
0.16218
0.157354
0.148466
0.13541
0.118713
0.0994639
0.077366
0.0522761
0.0257842
-0.00013512
-0.0261008
-0.0527246
-0.0780111
-0.100378
-0.119802
-0.136433
-0.149264
-0.157939
-0.162504
-0.163309
-0.160951
-0.156769
-0.150296
-0.141137
-0.130869
-0.12086
-0.1109
-0.100594
-0.0907441
-0.0814673
0.091522
0.102875
0.115063
0.128368
0.141783
0.155684
0.17013
0.183044
0.191267
0.196405
0.200191
0.199909
0.19494
0.184577
0.168569
0.14779
0.1241
0.0967594
0.0652039
0.0319051
-0.00024562
-0.0324419
-0.0658699
-0.0976195
-0.125251
-0.149135
-0.169835
-0.185561
-0.195386
-0.199769
-0.199604
-0.195357
-0.189172
-0.180137
-0.167441
-0.153624
-0.140923
-0.128582
-0.115597
-0.103382
-0.0921487
0.102814
0.116427
0.131451
0.14822
0.165691
0.184165
0.203553
0.221485
0.234378
0.243498
0.250235
0.251456
0.24629
0.233922
0.214133
0.188004
0.157706
0.122762
0.0828744
0.0408495
-0.000139824
-0.041176
-0.083333
-0.123414
-0.158641
-0.18911
-0.215122
-0.234588
-0.246376
-0.25094
-0.249305
-0.242148
-0.231991
-0.218321
-0.200727
-0.182146
-0.165085
-0.148863
-0.132485
-0.117423
-0.103875
0.114934
0.131049
0.149368
0.170278
0.192728
0.216917
0.242609
0.267225
0.286703
0.301646
0.312758
0.316314
0.311149
0.296366
0.271808
0.238813
0.199927
0.155211
0.104931
0.0521263
0.000143579
-0.0519038
-0.104906
-0.155452
-0.200498
-0.239555
-0.272346
-0.296511
-0.310763
-0.315454
-0.311658
-0.300286
-0.284317
-0.264075
-0.239937
-0.215186
-0.192462
-0.171265
-0.150746
-0.132375
-0.116298
0.127053
0.145289
0.167338
0.193105
0.221754
0.253106
0.286532
0.319528
0.346377
0.367882
0.385124
0.39222
0.387574
0.370229
0.339838
0.298306
0.248303
0.191128
0.129249
0.0645387
3.83077e-05
-0.0645777
-0.130043
-0.192787
-0.250815
-0.301395
-0.342288
-0.371884
-0.389293
-0.394207
-0.387658
-0.370768
-0.346394
-0.316905
-0.284406
-0.25199
-0.221696
-0.193851
-0.16843
-0.146351
-0.128346
0.139754
0.16046
0.186747
0.218072
0.253831
0.293464
0.335963
0.37899
0.415276
0.445329
0.470116
0.481601
0.47776
0.457597
0.420553
0.369134
0.306158
0.234316
0.158414
0.0793216
-7.00279e-05
-0.0795892
-0.159869
-0.237109
-0.310288
-0.374289
-0.424759
-0.460748
-0.481656
-0.486508
-0.476229
-0.452243
-0.417375
-0.376509
-0.333966
-0.292545
-0.253591
-0.218234
-0.187269
-0.161034
-0.140803
0.15343
0.177612
0.208649
0.246177
0.289634
0.338345
0.391147
0.445751
0.496935
0.540849
0.574686
0.591523
0.588635
0.565433
0.520879
0.458298
0.380158
0.290936
0.196122
0.097603
-2.30398e-05
-0.0976672
-0.196515
-0.29181
-0.382342
-0.461676
-0.52413
-0.568523
-0.593018
-0.597279
-0.58099
-0.547184
-0.498132
-0.442183
-0.388129
-0.336552
-0.288656
-0.245744
-0.20875
-0.177913
-0.154316
0.166625
0.194363
0.230419
0.274645
0.326487
0.38528
0.449795
0.517097
0.583695
0.641647
0.684634
0.706996
0.705139
0.678848
0.626556
0.552419
0.458528
0.351107
0.236263
0.117046
-0.000111819
-0.117158
-0.235773
-0.350119
-0.458636
-0.553746
-0.62858
-0.681614
-0.709625
-0.713046
-0.690432
-0.64661
-0.583326
-0.511951
-0.44537
-0.382365
-0.324584
-0.273505
-0.230111
-0.194472
-0.167386
0.177547
0.207686
0.248626
0.2996
0.358445
0.426389
0.506684
0.590229
0.671706
0.742688
0.794705
0.822945
0.82186
0.792281
0.731866
0.645891
0.53632
0.410859
0.276696
0.137367
-0.000137887
-0.137482
-0.276184
-0.4097
-0.53536
-0.645345
-0.732089
-0.793392
-0.824219
-0.826311
-0.797872
-0.745157
-0.670547
-0.586168
-0.504649
-0.427138
-0.35848
-0.298644
-0.248783
-0.208488
-0.17865
0.186697
0.218845
0.264199
0.321416
0.386794
0.463303
0.558494
0.657024
0.751716
0.834125
0.894082
0.927626
0.927188
0.894631
0.826832
0.730168
0.606451
0.464749
0.313229
0.155778
-0.000178264
-0.155973
-0.312931
-0.463816
-0.604873
-0.72815
-0.825489
-0.89413
-0.92735
-0.928207
-0.894593
-0.834163
-0.749842
-0.654066
-0.55875
-0.467534
-0.38862
-0.32057
-0.264781
-0.220315
-0.188121
0.194636
0.229177
0.278113
0.340476
0.413673
0.499355
0.603856
0.711562
0.815326
0.905618
0.971306
1.00851
1.00846
0.973465
0.900015
0.795123
0.660628
0.506499
0.341533
0.170026
2.44884e-05
-0.169839
-0.341159
-0.505753
-0.659173
-0.79309
-0.898243
-0.972135
-1.00763
-1.00796
-0.9705
-0.904126
-0.811903
-0.707003
-0.601989
-0.50115
-0.413757
-0.338724
-0.278193
-0.23039
-0.195886
0.199817
0.235968
0.287191
0.352824
0.431413
0.523263
0.633514
0.746955
0.856909
0.952771
1.02245
1.06225
1.06245
1.02584
0.948573
0.838194
0.696477
0.534083
0.360233
0.17945
0.000234356
-0.178853
-0.359721
-0.533465
-0.695203
-0.836337
-0.946629
-1.02399
-1.06103
-1.0611
-1.02094
-0.950448
-0.852667
-0.741491
-0.630097
-0.522993
-0.43002
-0.35033
-0.286783
-0.236855
-0.200841
0.20165
0.238335
0.29027
0.356849
0.436493
0.52968
0.642107
0.75784
0.869691
0.967302
1.03849
1.07932
1.07976
1.04268
0.964146
0.851915
0.707861
0.542826
0.36638
0.182836
0.000233141
-0.1822
-0.365506
-0.541535
-0.705914
-0.849418
-0.961589
-1.04024
-1.07776
-1.07765
-1.03663
-0.964828
-0.865664
-0.752844
-0.639084
-0.529657
-0.435044
-0.35407
-0.289566
-0.238962
-0.202482
0.199953
0.236028
0.28706
0.352345
0.430094
0.521113
0.631862
0.746012
0.856105
0.952337
1.02275
1.06328
1.06377
1.02721
0.949591
0.838806
0.696737
0.534135
0.360653
0.180199
0.000184674
-0.179605
-0.359445
-0.532166
-0.694138
-0.835738
-0.946537
-1.02434
-1.06138
-1.06136
-1.02096
-0.950315
-0.853034
-0.742312
-0.630064
-0.522081
-0.429193
-0.349717
-0.286339
-0.236557
-0.200687
0.194923
0.229337
0.277987
0.339992
0.414
0.500305
0.60383
0.710679
0.81419
0.904844
0.971868
1.01044
1.0108
0.975725
0.901487
0.795739
0.660796
0.506492
0.34185
0.170671
0.00016183
-0.170085
-0.34039
-0.504063
-0.657931
-0.79261
-0.89824
-0.972495
-1.00804
-1.0083
-0.97053
-0.904
-0.812602
-0.708499
-0.602673
-0.50092
-0.413124
-0.337845
-0.277543
-0.229974
-0.195675
0.18714
0.219136
0.2642
0.321204
0.389199
0.467933
0.560778
0.656891
0.750911
0.833582
0.895311
0.930685
0.930604
0.897704
0.828554
0.730516
0.606269
0.464461
0.313239
0.156157
0.000122069
-0.155644
-0.311678
-0.461851
-0.603562
-0.727827
-0.825541
-0.894416
-0.927719
-0.928568
-0.894689
-0.834186
-0.750984
-0.656325
-0.560374
-0.468352
-0.388585
-0.319808
-0.264247
-0.220023
-0.187987
0.177977
0.207803
0.248485
0.299239
0.359377
0.428215
0.506655
0.58833
0.670447
0.743057
0.797294
0.827753
0.826681
0.796216
0.733536
0.645368
0.535155
0.409675
0.276029
0.137337
0.000137497
-0.136823
-0.274429
-0.407132
-0.533386
-0.644345
-0.731517
-0.793102
-0.823808
-0.825744
-0.797435
-0.745034
-0.67106
-0.587316
-0.505677
-0.427935
-0.358982
-0.29891
-0.249303
-0.209175
-0.179033
0.167042
0.194329
0.23019
0.27419
0.325887
0.384202
0.447582
0.513807
0.582436
0.643323
0.688828
0.713654
0.711411
0.683713
0.628333
0.551294
0.456736
0.349417
0.235253
0.116806
0.000120193
-0.116382
-0.233784
-0.34719
-0.456179
-0.552224
-0.627636
-0.681151
-0.708953
-0.712125
-0.689987
-0.646757
-0.583499
-0.512146
-0.445864
-0.383141
-0.325622
-0.27481
-0.231677
-0.196107
-0.168249
0.153988
0.177752
0.208686
0.246089
0.289424
0.337712
0.389563
0.443206
0.496526
0.543372
0.579519
0.59865
0.595336
0.570727
0.523167
0.457865
0.379515
0.290828
0.196311
0.0980105
1.99651e-05
-0.097863
-0.195362
-0.289435
-0.380062
-0.460081
-0.523858
-0.56961
-0.594413
-0.598788
-0.582418
-0.548502
-0.499006
-0.442652
-0.388807
-0.337479
-0.289827
-0.247162
-0.210381
-0.179561
-0.155129
0.140363
0.160658
0.186904
0.218201
0.253933
0.293271
0.334995
0.37719
0.415687
0.448596
0.475392
0.488901
0.484663
0.463279
0.42358
0.369835
0.307136
0.236185
0.160087
0.0805568
-0.000124949
-0.0807637
-0.15971
-0.235568
-0.308478
-0.372856
-0.4253
-0.463462
-0.485238
-0.490612
-0.479671
-0.454813
-0.419003
-0.377271
-0.334735
-0.293407
-0.254548
-0.219317
-0.188502
-0.16229
-0.141306
0.127373
0.144962
0.166973
0.19274
0.221166
0.252088
0.284946
0.317307
0.345107
0.367977
0.386244
0.394442
0.389747
0.37182
0.339917
0.297157
0.247843
0.191799
0.130089
0.0652868
-5.38508e-05
-0.0653994
-0.129985
-0.191709
-0.248933
-0.299217
-0.341305
-0.372463
-0.391188
-0.397112
-0.390331
-0.372854
-0.347689
-0.317439
-0.284746
-0.252216
-0.221676
-0.193657
-0.168322
-0.146335
-0.128063
0.114865
0.130077
0.148333
0.169248
0.191266
0.214898
0.240269
0.264537
0.283835
0.29878
0.310031
0.313814
0.30895
0.294196
0.269208
0.235995
0.198081
0.15462
0.10484
0.0523197
2.4634e-05
-0.0522965
-0.104894
-0.154847
-0.198624
-0.236734
-0.269855
-0.294842
-0.310749
-0.316884
-0.313334
-0.301746
-0.285204
-0.264356
-0.239845
-0.214792
-0.191497
-0.169845
-0.149357
-0.13115
-0.115286
0.102537
0.1152
0.130164
0.146979
0.164088
0.182151
0.201488
0.219416
0.232395
0.241642
0.248477
0.249792
0.244883
0.232584
0.21246
0.186149
0.15671
0.122812
0.0832082
0.0412811
-0.000159838
-0.041618
-0.0835949
-0.123278
-0.157292
-0.186777
-0.213031
-0.233255
-0.246731
-0.252792
-0.251432
-0.244033
-0.233218
-0.218824
-0.200726
-0.181725
-0.163993
-0.147241
-0.130859
-0.115972
-0.102706
0.0911043
0.101533
0.113699
0.127123
0.140295
0.15396
0.168584
0.18175
0.190276
0.195674
0.199589
0.199352
0.194571
0.184224
0.167832
0.146785
0.123795
0.0972965
0.0658262
0.0324624
-0.000249751
-0.0329663
-0.0663412
-0.0978276
-0.124371
-0.14735
-0.168302
-0.184744
-0.196166
-0.201961
-0.202035
-0.197527
-0.190664
-0.180871
-0.16763
-0.153376
-0.140042
-0.127213
-0.114212
-0.10213
-0.0911198
0.0808861
0.0895502
0.0994049
0.110078
0.120332
0.130768
0.141789
0.151508
0.157849
0.161599
0.163675
0.162474
0.157745
0.148791
0.135301
0.118257
0.0994667
0.0779481
0.0528179
0.0262006
-7.12017e-05
-0.0263406
-0.0529524
-0.0780883
-0.0997479
-0.118618
-0.135526
-0.148958
-0.158642
-0.164048
-0.165018
-0.162433
-0.15771
-0.150613
-0.14096
-0.13035
-0.120247
-0.110319
-0.100034
-0.0902357
-0.0809154
0.0717781
0.0790026
0.0869619
0.0954077
0.103375
0.111325
0.119577
0.126753
0.131824
0.134763
0.135659
0.133889
0.129286
0.12146
0.110285
0.0963728
0.0806835
0.0628862
0.0427325
0.021432
0.000134714
-0.0211599
-0.0424573
-0.0626369
-0.0807067
-0.0965948
-0.110349
-0.121369
-0.129592
-0.134559
-0.136063
-0.134775
-0.131371
-0.126055
-0.119075
-0.111252
-0.103613
-0.0959242
-0.0878072
-0.0798555
-0.0718832
0.0635813
0.0695194
0.0759159
0.0825398
0.088493
0.094298
0.100382
0.10557
0.109037
0.110761
0.110822
0.108753
0.10452
0.0978274
0.0885556
0.0772055
0.064581
0.0503323
0.0341773
0.0171251
0.000134792
-0.0168567
-0.0339187
-0.0501247
-0.0646843
-0.0775374
-0.0887257
-0.0977946
-0.104799
-0.109326
-0.111133
-0.110769
-0.108742
-0.10518
-0.100246
-0.0945634
-0.0889892
-0.083217
-0.0768387
-0.0703991
-0.0636942
0.0562993
0.0611492
0.0662617
0.0714167
0.0757696
0.0798934
0.0842992
0.0879612
0.0901955
0.0910137
0.0905148
0.0883266
0.0845016
0.0787987
0.0710976
0.0618266
0.0516925
0.0403069
0.0273366
0.0136558
9.38634e-05
-0.0134751
-0.0271824
-0.0402271
-0.051945
-0.0623265
-0.0714483
-0.0789344
-0.0849031
-0.0889856
-0.0909305
-0.0911998
-0.0901921
-0.0879517
-0.0845494
-0.0804699
-0.0764402
-0.0721231
-0.0671116
-0.061919
-0.0563375
0.0497661
0.0536207
0.0576821
0.0616827
0.0649913
0.0680261
0.0711728
0.0737254
0.0753944
0.0759187
0.0751087
0.0729226
0.0694461
0.0645337
0.0581145
0.0504888
0.042053
0.0326497
0.0221641
0.0111189
7.5643e-05
-0.0109807
-0.0220686
-0.0326431
-0.0423134
-0.0509343
-0.058429
-0.0646264
-0.0695797
-0.0730921
-0.0750438
-0.0757036
-0.0752805
-0.0738645
-0.0715612
-0.0686242
-0.065394
-0.0618317
-0.0578583
-0.0537111
-0.0494202
0.0439824
0.046997
0.0502058
0.0532965
0.055845
0.0581019
0.0603089
0.0620573
0.0634324
0.0638861
0.0629265
0.0608246
0.0576821
0.0534376
0.0480683
0.0417559
0.0346015
0.0266944
0.018156
0.0091775
7.10814e-05
-0.00905354
-0.0180878
-0.026725
-0.0348297
-0.0421076
-0.0483153
-0.0534714
-0.0575507
-0.0605223
-0.0624022
-0.0632804
-0.0631968
-0.0623095
-0.0607826
-0.0586629
-0.055925
-0.0528427
-0.0496742
-0.0463841
-0.0432366
0.0389461
0.0413395
0.0438641
0.0462256
0.0480357
0.0495561
0.0510527
0.0521946
0.0531412
0.053348
0.0523142
0.0503486
0.0475787
0.0439587
0.03946
0.034226
0.0283115
0.0218073
0.0148285
0.00749792
5.99874e-05
-0.00739895
-0.0147927
-0.0218786
-0.0285864
-0.0346408
-0.0398055
-0.0441277
-0.0475985
-0.0502105
-0.0519847
-0.0529729
-0.0531715
-0.0527167
-0.0517451
-0.0502422
-0.0481216
-0.0456673
-0.0431616
-0.0405491
-0.0380823
0.0344897
0.0363822
0.0383597
0.0401552
0.0414116
0.0423943
0.0433776
0.0440704
0.0446669
0.0446682
0.0436102
0.0418058
0.0393834
0.0362998
0.0325198
0.0281651
0.0232696
0.0179086
0.0121761
0.00615993
6.42242e-05
-0.00605217
-0.0121299
-0.0179653
-0.023524
-0.0285649
-0.0328775
-0.0365215
-0.0394962
-0.0417982
-0.043442
-0.0444622
-0.044835
-0.0446748
-0.0440944
-0.0430557
-0.0414504
-0.0395382
-0.0375825
-0.0355166
-0.0335735
0.0306071
0.0321564
0.033704
0.0350821
0.0360848
0.0368395
0.0374804
0.0378447
0.0380105
0.037695
0.0366397
0.0350023
0.0328565
0.0301901
0.0269966
0.0233513
0.0192839
0.0148456
0.0101032
0.00512912
6.5086e-05
-0.0050164
-0.0100414
-0.0148645
-0.0194315
-0.0235865
-0.0271976
-0.0302822
-0.0328349
-0.0348539
-0.0363504
-0.0373485
-0.0378433
-0.0379018
-0.0375909
-0.0368994
-0.0357846
-0.0343996
-0.0329021
-0.0312804
-0.029679

POINT_DATA	1681
SCALARS g_z double 1
LOOKUP_TABLE table0
0.0297691
0.031393
0.0328889
0.0342726
0.0355712
0.0366836
0.037491
0.0379657
0.0379579
0.0374946
0.0366065
0.0351483
0.0330377
0.0303442
0.0271652
0.0235061
0.0194275
0.0149593
0.010151
0.00511917
-1.35594e-05
-0.00514331
-0.0101663
-0.0149628
-0.0194526
-0.0235161
-0.0270657
-0.0301209
-0.0328058
-0.0349619
-0.0364428
-0.0373974
-0.0378008
-0.0377999
-0.037533
-0.0369412
-0.0360183
-0.0348155
-0.0333872
-0.03175
-0.0299349
0.0338892
0.0360104
0.0379481
0.0397619
0.0415271
0.0430763
0.0442169
0.0449415
0.0450088
0.0445197
0.0435782
0.0419415
0.0394667
0.0362741
0.032521
0.0281824
0.0233396
0.0180084
0.0122311
0.00616778
-1.91933e-05
-0.00620738
-0.0122746
-0.0180643
-0.0234903
-0.0283799
-0.0326036
-0.0362163
-0.0394662
-0.0420541
-0.0436961
-0.0446657
-0.0448878
-0.044619
-0.0441031
-0.0432093
-0.0419128
-0.0402959
-0.0384431
-0.0363551
-0.0340407
0.0384864
0.0411318
0.0436027
0.0459465
0.0482302
0.0502703
0.0518511
0.0529378
0.0532578
0.0528981
0.0519526
0.0501556
0.0473467
0.0436476
0.0392262
0.0340657
0.0282578
0.0218289
0.0148408
0.00748802
-2.76948e-05
-0.00755072
-0.014925
-0.0219525
-0.0285072
-0.0343809
-0.0394216
-0.04368
-0.0474102
-0.0503019
-0.0520675
-0.0530062
-0.0530638
-0.0525212
-0.0516453
-0.0503202
-0.0485398
-0.0464082
-0.0440265
-0.0414059
-0.0385676
0.0436805
0.0469562
0.0500824
0.0530841
0.0560005
0.0586533
0.0608231
0.0624269
0.0631481
0.0630373
0.0621608
0.0602362
0.057088
0.0528248
0.0476123
0.0414466
0.0344369
0.0266301
0.0181198
0.00915252
-9.58101e-06
-0.00918689
-0.018198
-0.0267792
-0.0347421
-0.0418368
-0.0478845
-0.0529193
-0.0571926
-0.0603918
-0.0622427
-0.0630834
-0.0628987
-0.0619739
-0.0605812
-0.0586458
-0.0562047
-0.0533958
-0.0503449
-0.0470795
-0.0436314
0.049622
0.0537408
0.057688
0.0615156
0.0650483
0.0683126
0.0712817
0.0736256
0.075001
0.0753517
0.0746523
0.0726496
0.0691781
0.0642923
0.0581199
0.0507021
0.0421772
0.0326236
0.0221821
0.0111833
0.000134408
-0.0109387
-0.0220066
-0.0325527
-0.0422718
-0.0508819
-0.0581919
-0.0641914
-0.0691755
-0.0727708
-0.0746656
-0.0753168
-0.0749053
-0.0735723
-0.0714496
-0.0686618
-0.0653246
-0.0616228
-0.0577128
-0.0536429
-0.0494093
0.0562751
0.0613932
0.0663672
0.0712788
0.07573
0.0799347
0.0840352
0.087429
0.0897255
0.0907491
0.0903725
0.0883591
0.0845385
0.0789016
0.0715354
0.0625332
0.0520757
0.0402878
0.0273753
0.0137728
0.000250658
-0.0133045
-0.0270009
-0.0400514
-0.0520148
-0.0625608
-0.0714714
-0.0786769
-0.0845067
-0.0885262
-0.0903943
-0.0907001
-0.0898357
-0.0878155
-0.0846506
-0.0806885
-0.0761453
-0.0712678
-0.0662515
-0.0611704
-0.0559841
0.0636107
0.0698308
0.0760821
0.0824302
0.0884243
0.0942348
0.099931
0.104777
0.108271
0.110173
0.110309
0.108381
0.104155
0.0975716
0.0887076
0.0776954
0.0647781
0.0501418
0.0340724
0.0171236
0.000188081
-0.0167876
-0.0338507
-0.0500875
-0.06493
-0.0779623
-0.0888997
-0.0976049
-0.104369
-0.108761
-0.110486
-0.110216
-0.108431
-0.105191
-0.100566
-0.0950228
-0.0888944
-0.0824988
-0.0760741
-0.0697276
-0.0634313
0.0718152
0.0793682
0.0872071
0.0953936
0.103417
0.111379
0.119229
0.126019
0.131035
0.134056
0.134945
0.133258
0.128635
0.120929
0.110198
0.0966611
0.0806891
0.0625013
0.04244
0.0212606
5.3914e-05
-0.0211976
-0.0425043
-0.0627531
-0.081172
-0.0972819
-0.110754
-0.12131
-0.129134
-0.13384
-0.135246
-0.134119
-0.131073
-0.126196
-0.119615
-0.112007
-0.103904