# vtk DataFile Version 3.0
Gravity inversion using rectangular prisms
ASCII
DATASET UNSTRUCTURED_GRID

POINTS	1200	double
100	100	100
100	100	300
100	100	500
100	100	700
100	100	900
100	300	100
100	300	300
100	300	500
100	300	700
100	300	900
100	500	100
100	500	300
100	500	500
100	500	700
100	500	900
100	700	100
100	700	300
100	700	500
100	700	700
100	700	900
100	900	100
50	850	250
50	850	350
50	950	250
50	950	350
150	850	250
150	850	350
150	950	250
150	950	350
100	900	500
100	900	700
100	900	900
100	1100	100
50	1050	250
50	1050	350
50	1150	250
50	1150	350
150	1050	250
150	1050	350
150	1150	250
150	1150	350
100	1100	500
100	1100	700
100	1100	900
100	1300	100
100	1300	300
100	1300	500
100	1300	700
100	1300	900
100	1500	100
100	1500	300
100	1500	500
100	1500	700
100	1500	900
100	1700	100
100	1700	300
100	1700	500
100	1700	700
100	1700	900
100	1900	100
100	1900	300
100	1900	500
100	1900	700
100	1900	900
300	100	100
300	100	300
300	100	500
300	100	700
300	100	900
300	300	100
300	300	300
300	300	500
300	300	700
300	300	900
300	500	100
300	500	300
300	500	500
300	500	700
300	500	900
300	700	100
250	650	250
250	650	350
250	750	250
250	750	350
350	650	250
350	650	350
350	750	250
350	750	350
300	700	500
300	700	700
300	700	900
250	850	50
250	850	150
250	950	50
250	950	150
350	850	50
350	850	150
350	950	50
350	950	150
250	850	250
250	850	350
250	950	250
250	950	350
350	850	250
350	850	350
350	950	250
350	950	350
300	900	500
300	900	700
300	900	900
250	1050	50
250	1050	150
250	1150	50
250	1150	150
350	1050	50
350	1050	150
350	1150	50
350	1150	150
250	1050	250
250	1050	350
250	1150	250
250	1150	350
350	1050	250
350	1050	350
350	1150	250
350	1150	350
300	1100	500
300	1100	700
300	1100	900
300	1300	100
250	1250	250
250	1250	350
250	1350	250
250	1350	350
350	1250	250
350	1250	350
350	1350	250
350	1350	350
300	1300	500
300	1300	700
300	1300	900
300	1500	100
300	1500	300
300	1500	500
300	1500	700
300	1500	900
300	1700	100
300	1700	300
300	1700	500
300	1700	700
300	1700	900
300	1900	100
300	1900	300
300	1900	500
300	1900	700
300	1900	900
500	100	100
500	100	300
500	100	500
500	100	700
500	100	900
500	300	100
500	300	300
500	300	500
500	300	700
500	300	900
500	500	100
450	450	250
450	450	350
450	550	250
450	550	350
550	450	250
550	450	350
550	550	250
550	550	350
500	500	500
500	500	700
500	500	900
450	650	50
450	650	150
450	750	50
450	750	150
550	650	50
550	650	150
550	750	50
550	750	150
450	650	250
450	650	350
450	750	250
450	750	350
550	650	250
550	650	350
550	750	250
550	750	350
450	650	450
450	650	550
450	750	450
450	750	550
550	650	450
550	650	550
550	750	450
550	750	550
500	700	700
500	700	900
450	850	50
450	850	150
450	950	50
450	950	150
550	850	50
550	850	150
550	950	50
550	950	150
450	850	250
450	850	350
450	950	250
450	950	350
550	850	250
550	850	350
550	950	250
550	950	350
450	850	450
450	850	550
450	950	450
450	950	550
550	850	450
550	850	550
550	950	450
550	950	550
500	900	700
500	900	900
450	1050	50
450	1050	150
450	1150	50
450	1150	150
550	1050	50
550	1050	150
550	1150	50
550	1150	150
450	1050	250
450	1050	350
450	1150	250
450	1150	350
550	1050	250
550	1050	350
550	1150	250
550	1150	350
450	1050	450
450	1050	550
450	1150	450
450	1150	550
550	1050	450
550	1050	550
550	1150	450
550	1150	550
500	1100	700
500	1100	900
450	1250	50
450	1250	150
450	1350	50
450	1350	150
550	1250	50
550	1250	150
550	1350	50
550	1350	150
450	1250	250
450	1250	350
450	1350	250
450	1350	350
550	1250	250
550	1250	350
550	1350	250
550	1350	350
450	1250	450
450	1250	550
450	1350	450
450	1350	550
550	1250	450
550	1250	550
550	1350	450
550	1350	550
500	1300	700
500	1300	900
500	1500	100
450	1450	250
450	1450	350
450	1550	250
450	1550	350
550	1450	250
550	1450	350
550	1550	250
550	1550	350
500	1500	500
500	1500	700
500	1500	900
500	1700	100
500	1700	300
500	1700	500
500	1700	700
500	1700	900
500	1900	100
500	1900	300
500	1900	500
500	1900	700
500	1900	900
700	100	100
700	100	300
700	100	500
700	100	700
700	100	900
700	300	100
700	300	300
700	300	500
700	300	700
700	300	900
700	500	100
650	450	250
650	450	350
650	550	250
650	550	350
750	450	250
750	450	350
750	550	250
750	550	350
700	500	500
700	500	700
700	500	900
650	650	50
650	650	150
650	750	50
650	750	150
750	650	50
750	650	150
750	750	50
750	750	150
650	650	250
650	650	350
650	750	250
650	750	350
750	650	250
750	650	350
750	750	250
750	750	350
650	650	450
650	650	550
650	750	450
650	750	550
750	650	450
750	650	550
750	750	450
750	750	550
700	700	700
700	700	900
650	850	50
650	850	150
650	950	50
650	950	150
750	850	50
750	850	150
750	950	50
750	950	150
650	850	250
650	850	350
650	950	250
650	950	350
750	850	250
750	850	350
750	950	250
750	950	350
650	850	450
650	850	550
650	950	450
650	950	550
750	850	450
750	850	550
750	950	450
750	950	550
700	900	700
700	900	900
650	1050	50
650	1050	150
650	1150	50
650	1150	150
750	1050	50
750	1050	150
750	1150	50
750	1150	150
650	1050	250
650	1050	350
650	1150	250
650	1150	350
750	1050	250
750	1050	350
750	1150	250
750	1150	350
650	1050	450
650	1050	550
650	1150	450
650	1150	550
750	1050	450
750	1050	550
750	1150	450
750	1150	550
700	1100	700
700	1100	900
650	1250	50
650	1250	150
650	1350	50
650	1350	150
750	1250	50
750	1250	150
750	1350	50
750	1350	150
650	1250	250
650	1250	350
650	1350	250
650	1350	350
750	1250	250
750	1250	350
750	1350	250
750	1350	350
650	1250	450
650	1250	550
650	1350	450
650	1350	550
750	1250	450
750	1250	550
750	1350	450
750	1350	550
700	1300	700
700	1300	900
700	1500	100
650	1450	250
650	1450	350
650	1550	250
650	1550	350
750	1450	250
750	1450	350
750	1550	250
750	1550	350
700	1500	500
700	1500	700
700	1500	900
700	1700	100
700	1700	300
700	1700	500
700	1700	700
700	1700	900
700	1900	100
700	1900	300
700	1900	500
700	1900	700
700	1900	900
900	100	100
900	100	300
900	100	500
900	100	700
900	100	900
900	300	100
900	300	300
900	300	500
900	300	700
900	300	900
900	500	100
850	450	250
850	450	350
850	550	250
850	550	350
950	450	250
950	450	350
950	550	250
950	550	350
900	500	500
900	500	700
900	500	900
850	650	50
850	650	150
850	750	50
850	750	150
950	650	50
950	650	150
950	750	50
950	750	150
850	650	250
850	650	350
850	750	250
850	750	350
950	650	250
950	650	350
950	750	250
950	750	350
850	650	450
850	650	550
850	750	450
850	750	550
950	650	450
950	650	550
950	750	450
950	750	550
900	700	700
900	700	900
850	850	50
850	850	150
850	950	50
850	950	150
950	850	50
950	850	150
950	950	50
950	950	150
850	850	250
850	850	350
850	950	250
850	950	350
950	850	250
950	850	350
950	950	250
950	950	350
850	850	450
850	850	550
850	950	450
850	950	550
950	850	450
950	850	550
950	950	450
950	950	550
900	900	700
900	900	900
850	1050	50
850	1050	150
850	1150	50
850	1150	150
950	1050	50
950	1050	150
950	1150	50
950	1150	150
850	1050	250
850	1050	350
850	1150	250
850	1150	350
950	1050	250
950	1050	350
950	1150	250
950	1150	350
850	1050	450
850	1050	550
850	1150	450
850	1150	550
950	1050	450
950	1050	550
950	1150	450
950	1150	550
900	1100	700
900	1100	900
850	1250	50
850	1250	150
850	1350	50
850	1350	150
950	1250	50
950	1250	150
950	1350	50
950	1350	150
850	1250	250
850	1250	350
850	1350	250
850	1350	350
950	1250	250
950	1250	350
950	1350	250
950	1350	350
850	1250	450
850	1250	550
850	1350	450
850	1350	550
950	1250	450
950	1250	550
950	1350	450
950	1350	550
900	1300	700
900	1300	900
900	1500	100
900	1500	300
900	1500	500
900	1500	700
900	1500	900
900	1700	100
900	1700	300
900	1700	500
900	1700	700
900	1700	900
900	1900	100
900	1900	300
900	1900	500
900	1900	700
900	1900	900
1100	100	100
1100	100	300
1100	100	500
1100	100	700
1100	100	900
1100	300	100
1100	300	300
1100	300	500
1100	300	700
1100	300	900
1100	500	100
1050	450	250
1050	450	350
1050	550	250
1050	550	350
1150	450	250
1150	450	350
1150	550	250
1150	550	350
1100	500	500
1100	500	700
1100	500	900
1050	650	50
1050	650	150
1050	750	50
1050	750	150
1150	650	50
1150	650	150
1150	750	50
1150	750	150
1050	650	250
1050	650	350
1050	750	250
1050	750	350
1150	650	250
1150	650	350
1150	750	250
1150	750	350
1050	650	450
1050	650	550
1050	750	450
1050	750	550
1150	650	450
1150	650	550
1150	750	450
1150	750	550
1100	700	700
1100	700	900
1050	850	50
1050	850	150
1050	950	50
1050	950	150
1150	850	50
1150	850	150
1150	950	50
1150	950	150
1050	850	250
1050	850	350
1050	950	250
1050	950	350
1150	850	250
1150	850	350
1150	950	250
1150	950	350
1050	850	450
1050	850	550
1050	950	450
1050	950	550
1150	850	450
1150	850	550
1150	950	450
1150	950	550
1100	900	700
1100	900	900
1050	1050	50
1050	1050	150
1050	1150	50
1050	1150	150
1150	1050	50
1150	1050	150
1150	1150	50
1150	1150	150
1050	1050	250
1050	1050	350
1050	1150	250
1050	1150	350
1150	1050	250
1150	1050	350
1150	1150	250
1150	1150	350
1050	1050	450
1050	1050	550
1050	1150	450
1050	1150	550
1150	1050	450
1150	1050	550
1150	1150	450
1150	1150	550
1100	1100	700
1100	1100	900
1050	1250	50
1050	1250	150
1050	1350	50
1050	1350	150
1150	1250	50
1150	1250	150
1150	1350	50
1150	1350	150
1050	1250	250
1050	1250	350
1050	1350	250
1050	1350	350
1150	1250	250
1150	1250	350
1150	1350	250
1150	1350	350
1050	1250	450
1050	1250	550
1050	1350	450
1050	1350	550
1150	1250	450
1150	1250	550
1150	1350	450
1150	1350	550
1100	1300	700
1100	1300	900
1100	1500	100
1100	1500	300
1100	1500	500
1100	1500	700
1100	1500	900
1100	1700	100
1100	1700	300
1100	1700	500
1100	1700	700
1100	1700	900
1100	1900	100
1100	1900	300
1100	1900	500
1100	1900	700
1100	1900	900
1300	100	100
1300	100	300
1300	100	500
1300	100	700
1300	100	900
1300	300	100
1300	300	300
1300	300	500
1300	300	700
1300	300	900
1300	500	100
1250	450	250
1250	450	350
1250	550	250
1250	550	350
1350	450	250
1350	450	350
1350	550	250
1350	550	350
1300	500	500
1300	500	700
1300	500	900
1250	650	50
1250	650	150
1250	750	50
1250	750	150
1350	650	50
1350	650	150
1350	750	50
1350	750	150
1250	650	250
1250	650	350
1250	750	250
1250	750	350
1350	650	250
1350	650	350
1350	750	250
1350	750	350
1250	650	450
1250	650	550
1250	750	450
1250	750	550
1350	650	450
1350	650	550
1350	750	450
1350	750	550
1300	700	700
1300	700	900
1250	850	50
1250	850	150
[...]
CELL_DATA	1200
SCALARS model double 1
LOOKUP_TABLE table0
0.171868
3.10758
-9.66859
-6.49548
-13.3589
0.422258
2.75184
-16.5319
-11.1301
-15.9214
0.820791
-12.3068
-24.6062
-11.5315
-14.7522
-1.31871
-16.9672
-17.0717
-0.258404
-7.30149
-4.3696
-22.4802
-9.58225
-19.369
-5.75411
-7.70338
10.5542
-3.16171
16.161
0.415664
13.6863
0.392036
-4.35322
-19.7028
-6.82298
-20.6977
-10.3349
-3.98243
14.6197
-7.84159
7.35391
-0.715437
12.5032
-0.470079
-1.81321
-14.3255
-17.7041
-2.4201
-9.22929
-0.282592
-8.84421
-26.8254
-13.0599
-16.3552
0.0582846
-0.287595
-19.4769
-9.9144
-15.1093
-0.21553
5.27875
-12.7001
-4.94655
-11.7249
0.340245
0.905453
-10.7558
-4.7586
-8.87532
-0.0790642
-1.4823
-13.9826
-4.7184
-7.49228
-0.408008
-5.24675
-7.09154
7.45332
2.06616
-1.61835
-15.2127
9.75182
4.77586
31.5149
7.22929
37.4889
38.1423
69.8233
31.5095
38.7234
20.7696
-10.768
33.9244
-7.08855
42.8301
0.329506
69.9262
5.06488
84.2123
24.1257
50.5934
36.2432
62.4216
74.9718
105.031
98.6367
127.366
82.2829
70.0746
37.2476
-7.78859
38.594
-5.87607
26.9512
5.90948
79.9431
3.14188
58.7952
34.992
60.795
23.0246
47.3358
97.6209
125.851
73.691
101.549
82.1339
69.4229
36.8372
-1.87046
7.33964
29.3397
-5.71121
11.3267
39.247
66.1956
11.6723
34.2763
33.4943
38.0107
20.0981
-2.04618
-2.19539
-8.70891
8.17227
2.17361
-0.994214
2.65635
-14.7457
-1.72548
-5.46757
-0.64488
3.59596
-12.1615
-0.551052
-4.94337
0.0793785
1.83065
-8.54775
-0.552581
-3.09573
-0.159101
-8.56511
-9.95931
3.88541
2.20448
-3.73636
-19.5276
9.7715
-7.61413
25.0852
-20.2572
9.97113
-6.98287
27.4735
10.6412
28.5942
19.7863
-9.3217
31.8772
-0.150215
66.7271
-8.44576
37.9754
3.07906
78.9245
22.3477
57.3465
72.6846
107.005
30.7904
68.2269
94.4575
129.633
62.857
10.4061
110.437
54.4558
78.7185
33.2729
129.525
80.0723
80.2902
49.0414
11.7501
107.363
20.1224
133.648
19.3439
131.287
29.3553
164.97
128.894
159.501
165.663
193.052
164.344
193.732
210.154
234.731
152.715
86.825
181.669
109.017
179.745
120.683
211.663
145.545
129.639
73.7132
21.0615
130.658
14.1544
99.1655
30.6417
163.271
22.8462
126.642
165.427
192.012
128.976
156.714
210.786
234.342
166.414
192.395
180.748
110.307
150.596
92.3944
211.4
147.403
179.186
127.293
129.621
73.7634
3.89928
55.079
-4.78013
15.0311
9.34256
71.3819
-1.75758
25.0528
74.2556
103.465
25.8803
53.7187
98.2483
127.499
36.7254
65.7824
107.198
66.6945
61.0462
36.3305
128.867
93.9835
77.9836
58.3858
80.9405
49.5152
-5.27887
-0.653046
21.7685
-7.0986
6.61949
2.83177
25.3773
-5.97736
7.52231
2.28592
30.4866
21.1085
-1.41506
-1.27401
-13.1152
6.32197
4.38736
-0.104942
-0.433198
-13.1722
3.38885
1.83594
-0.0636833
-0.916767
-5.43583
2.34464
-0.513306
-0.200433
-9.39403
-5.60669
7.67562
5.49749
-3.26492
-20.5948
8.0638
-7.80002
25.2843
-17.8686
5.90886
-8.73508
19.3609
16.2655
32.3654
22.9374
-7.17496
35.9698
4.86518
77.2083
-7.33553
25.4012
3.29413
59.2873
30.1296
66.5523
95.2365
128.926
21.3107
53.0666
75.0633
104.911
78.2913
41.3365
128.529
87.8992
63.3181
36.5696
106.312
77.0325
82.1161
50.6555
20.7582
129.969
30.164
163.575
15.8918
102.254
23.3112
129.752
166.626
193.92
213.271
235.392
134.557
159.165
173.658
193.78
178.803
129.087
210.396
153.974
148.76
112.246
175.361
133.475
129.291
73.7708
31.3799
162.467
23.8145
126.242
24.1102
128.655
17.5973
98.0178
214.136
235.254
168.934
193.181
174.293
193.615
136.097
158.364
210.516
155.952
179.192
135.79
175.609
135.232
149.502
118.092
129.665
74.0936
9.81657
70.1111
-1.49168
23.8913
5.08574
50.4871
-4.34194
12.5156
98.922
127.36
35.8211
64.3009
77.1086
103.284
24.7039
50.6559
129.402
101.595
79.682
65.3857
107.857
88.828
66.4859
57.71
83.3364
51.6872
-4.39135
1.66835
22.6953
-6.8893
4.60679
-3.12704
15.0334
-9.07778
0.557499
6.72565
34.025
24.5626
-1.11707
-4.77985
-10.1705
8.48607
7.17377
0.011502
-2.84948
-10.6686
4.45249
3.73682
-0.000134293
-0.494984
-2.1121
2.15407
-2.35586
-0.135388
-1.82102
-1.77988
4.55351
0.667992
-1.28622
-12.4797
4.07716
-8.68756
11.3023
-4.71997
1.45601
-4.79796
3.04795
6.18266
14.7524
8.36113
-6.90246
12.9005
-0.862186
32.2148
-3.27576
4.73086
-2.99766
10.3553
9.017
32.2078
43.1124
65.3367
0.53873
9.54739
11.857
20.4645
42.0485
27.1024
68.7833
51.972
11.3754
6.23276
21.9782
16.5845
35.2884
20.0416
6.16834
58.5908
10.4195
75.4891
-0.707351
18.4301
0.557076
23.6856
81.3781
100.374
106.67
122.843
24.775
32.2417
33.2838
39.9863
96.4142
75.0434
113.933
89.2225
31.8373
24.9794
38.1038
30.0917
54.7872
29.7683
10.7549
74.7165
7.29466
55.41
1.23304
23.2748
0.046466
16.2896
107.239
122.767
82.6107
99.9954
33.632
40.1481
25.6155
32.6148
114.221
90.5005
97.2364
79.1576
38.4682
30.7531
32.9168
27.0661
55.3727
30.1859
0.152745
25.5558
-3.71283
4.30761
-2.35111
6.84162
-1.86358
1.29598
45.2207
64.7959
14.6382
32.4399
13.5541
21.0358
4.191
10.2652
70.1201
59.7114
43.1151
38.887
23.916
20.5442
14.9953
13.574
36.4079
21.1788
-1.29852
-6.24175
2.86034
15.7479
9.82943
-0.322872
-2.5141
-3.78773
4.37942
2.01282
-0.0276018
0.223813
-3.7444
2.3826
0.277024
0.0303764
0.332618
1.17796
0.255513
-6.03368
0.503797
1.97638
0.731454
-1.6617
-7.39757
1.51345
3.0264
-1.58051
1.07551
-4.97703
9.57836
-4.80962
4.6799
-13.5656
-9.30442
-11.2871
-13.3756
1.77228
2.00482
0.679467
-4.06534
3.87078
-6.00204
-0.828519
-24.9847
-4.654
-12.9016
-15.9505
-24.979
-13.5053
-35.7519
-47.4815
-69.862
-14.8602
-10.2535
-25.7823
-21.2038
-45.085
-32.2248
-72.098
-57.6996
-30.6557
-23.8626
-1.86026
-13.0294
-2.65991
-19.0548
-8.64152
-51.9664
-13.3372
-69.3271
-29.2186
-37.4702
-37.7598
-45.2232
-85.7045
-105.385
-110.675
-127.723
-35.6372
-29.8365
-41.551
-34.726
-99.6386
-81.058
-116.81
-95.1079
-50.5048
-32.622
-3.43935
-19.3107
-2.16138
-13.5351
-12.9381
-68.5701
-8.78239
-49.9746
-37.4881
-44.7858
-28.5996
-36.323
-110.409
-127.106
-85.1029
-103.793
-41.1958
-34.7993
-34.6853
-30.2474
-116.524
-95.9346
-98.8766
-83.8118
-48.7998
-32.26
0.554383
-4.43186
0.304134
1.17663
-0.837765
-22.12
3.11396
-3.11852
-15.3288
-23.5555
-4.74336
-11.7803
-47.6677
-68.1374
-17.146
-35.4618
-24.6575
-22.6541
-14.9737
-14.6911
-71.2041
-63.2357
-43.7899
-41.217
-30.3953
-22.9373
0.773234
4.64237
-2.45639
-11.3506
-12.3247
0.318431
1.10735
3.70483
-2.6999
-6.32543
0.0938255
-1.03718
3.25144
-1.7984
-5.38319
-0.0544752
0.692631
4.38288
-0.717826
-7.37835
0.500305
6.03971
4.13937
-4.44997
-11.0259
3.3416
12.8332
-7.47423
3.41552
-22.1143
13.7803
-9.04943
0.596956
-27.7222
-19.9953
-27.2367
-26.0748
2.81651
-17.8301
-6.71168
-51.5286
3.8458
-27.1936
-9.2522
-69.0652
-27.0259
-57.0221
-80.5292
-109.768
-37.6017
-70.648
-102.645
-134.357
-65.2828
-43.8808
-108.539
-84.9683
-78.2938
-51.987
-128.645
-99.1389
-74.0114
-52.1954
-18.1769
-94.2441
-26.2507
-122.604
-24.3536
-121.273
-33.5989
-155.369
-139.575
-164.334
-178.168
-198.752
-173.422
-199.887
-219.314
-241.254
-150.785
-120.482
-177.071
-141.786
-178.577
-140.642
-209.842
-165.975
-97.7727
-72.5581
-109.672
-91.3706
-115.558
-98.6645
-124.991
-113.605
-74.2092
-26.3801
-121.911
-19.5466
-92.3902
-34.2914
-154.931
-25.9075
-119.676
-178.011
-198.123
-139.354
-162.665
-219.299
-240.634
-173.272
-198.193
-177.042
-143.465
-150.753
-125.711
-210.206
-168.568
-179.449
-148.03
-119.271
-74.1303
-7.95346
-48.3013
1.63071
-13.5882
-10.8359
-65.6165
0.395957
-22.4047
-80.8901
-107.769
-29.0181
-55.6039
-102.987
-132.242
-40.0326
-69.0083
-109.111
-95.1253
-67.7711
-62.3685
-130.093
-111.986
-80.7755
-73.2264
-76.0874
-51.8386
3.7997
0.504416
-20.6631
9.51481
-3.2114
-4.77845
-26.4515
5.98788
-6.52909
-7.24406
-29.2907
-25.8338
0.722362
3.21838
9.74829
-7.25432
-10.6953
-0.0827355
-0.136139
8.90781
-4.8848
-8.30024
-0.464616
0.897026
7.10774
0.854564
-3.54569
-0.109539
9.81309
10.3728
0.196139
-5.11313
4.01944
13.7008
-7.98603
-0.627335
-27.9152
11.0586
-5.77803
-0.558296
-22.5253
-12.9588
-21.0257
-18.9231
3.63465
-27.4775
-9.88673
-69.93
2.763
-19.9067
-6.56163
-53.5868
-39.1682
-71.5413
-103.837
-135.33
-31.1622
-59.5775
-83.5173
-112.644
-75.2504
-48.6248
-125.827
-95.8942
-58.5202
-37.1269
-101.129
-76.9784
-69.5637
-45.7257
-23.9636
-121.836
-33.8107
-155.967
-17.2441
-94.9903
-25.1381
-122.26
-173.563
-200.67
-218.641
-241.917
-140.195
-167.004
-176.367
-201.192
-175.52
-136.727
-206.618
-162.578
-142.035
-108.732
-167.241
-131.842
-116.203
-69.2355
-34.4773
-155.416
-25.6975
-119.856
-25.5841
-121.552
-18.6605
-92.8255
-218.3
-241.098
-172.662
-198.445
-175.452
-199.894
-138.025
-163.692
-207.68
-166.67
-177.472
-146.794
-171.176
-140.365
-146.577
-124.515
-117.864
-69.3465
-10.93
-66.1202
-0.0524711
-23.7543
-8.15502
-51.1488
0.394547
-17.8543
-103.395
-132.673
-41.3563
-69.6179
-82.0493
-109
-32.2442
-56.9976
-127.924
-110.103
-78.3801
-70.7176
-102.782
-89.9983
-62.2298
-56.9499
-71.8653
-46.1313
3.33048
-6.51867
-26.9115
4.436
-7.04517
-3.66659
-20.8663
5.60938
-4.7019
-0.530268
-24.3724
-19.7443
0.279549
4.37985
14.8908
-4.60265
-6.01558
-0.0915687
-1.12605
12.1139
-3.84851
-4.76664
-0.19087
-3.48624
7.37545
3.54112
4.0181
-0.341114
1.7717
16.1568
9.86625
8.07412
1.70708
0.438151
12.5072
3.88457
4.40819
2.21723
-17.6973
-39.9873
-50.9241
-75.1858
1.09711
-11.2622
-18.4229
-33.4016
-17.8755
-22.2402
-10.0592
-4.55056
-53.4518
-9.08376
-68.2835
3.16619
-14.5593
1.08292
-22.5798
-87.9741
-112.59
-110.762
-135.569
-37.2984
-56.7042
-48.1751
-69.2272
-87.8507
-59.436
-99.4617
-76.8305
-32.1577
-10.1947
-44.0981
-28.8955
-50.7118
-24.7674
-10.1968
-67.5294
-7.30179
-50.4418
1.27989
-21.4475
1.73738
-13.6673
-109.205
-133.937
-84.2992
-108.616
-46.1005
-67.7458
-32.5877
-53.2529
-52.708
-52.0546
-25.3638
1.19375
-48.405
-71.2671
-19.0322
-37.7298
-15.0029
-30.7918
-1.59658
-12.9862
-12.207
-25.4399
-11.6371
1.23521
3.75408
18.3963
-0.989194
2.34906
0.0354236
-1.78149
18.6011
3.37452
5.82886
0.015307
-5.10445
13.386
0.181182
3.85505
-0.122494
-5.71034
6.78355
4.26834
6.68137
-0.285036
-2.12598
17.5135
13.476
13.3416
-0.198692
2.41715
22.8929
14.994
14.9112
2.46442
4.00957
13.2665
0.939859
7.29175
4.22793
-0.770115
-15.5787
-4.60753
-20.4036
10.1692
-3.27059
6.63903
-7.08233
1.15403
-17.4096
-2.377
4.28815
-3.6478
-19.6014
0.747161
-13.6248
6.62293
-6.89435
8.64868
-3.48217
-4.14064
-19.1577
-3.32529
1.45576
4.77763
15.3947
-3.33357
4.95978
-0.157319
4.68777
27.4277
9.39051
12.2054
-0.699425
-2.65684
20.361
6.65415
10.57
0.278909
-7.09662
13.7728
1.68025
7.00574
SCALARS m0 double 1
LOOKUP_TABLE table1
0
0
0
0
0
0
0
0
0
0
0
0
0
0
0
0
0
0
0
0
0
0
0
0
0
0
0
0
0
0
0
0
0
0
0
0
0
0
0
0
0
0
0
0
0
0
0
0
0
0
0
0
0
0
0
0
0
0
0
0
0
0
0
0
0
0
0
0
0
0
0
0
0
0
0
0
0
0
0
0
0
0
0
0
0
0
0
0
0
0
0
0
0
0
0
0
0
0
0
0
0
0
0
0
0
0
0
0
0
0
0
0
0
0
0
0
0
0
0
0
0
0
0
0
0
0
0
0
0
0
0
0
0
0
0
0
0
0
0
0
0
0
0
0
0
0
0
0
0
0
0
0
0
0
0
0
0
0
0
0
0
0
0
0
0
0
0
0
0
0
0
0
0
0
0
0
0
0
0
0
0
0
0
0
0
0
0
0
0
0
0
0
0
0
0
0
0
0
0
0
0
0
0
0
0
0
0
0
0
0
0
0
0
0
0
0
0
0
0
0
0
0
0
0
0
0
0
0
0
0
0
0
0
0
0
0
0
0
0
0
0
0
0
0
0
0
0
0
0
0
0
0
0
0
0
0
0
0
0
0
0
0
0
0
0
0
0
0
0
0
0
0
0
0
0
0
0
0
0
0
0
0
0
0
0
0
0
0
0
0
0
0
0
0
0
0
0
0
0
0
0
0
0
0
0
0
0
0
0
0
0
0
0
0
0
0
0
0
0
0
0
0
0
0
0
0
0
0
0
0
0
0
0
0
0
0
0
0
0
0
0
0
0
0
0
0
0
0
0
0
0
0
0
0
0
0
0
0
0
0
0
0
0
0
0
0
0
0
0
0
0
0
0
0
0
0
0
0
0
0
0
0
0
0
0
0
0
0
0
0
0
0
0
0
0
0
0
0
0
0
0
0
0
0
0
0
0
0
0
0
0
0
0
0
0
0
0
0
0
0
0
0
0
0
0
0
0
0
0
0
0
0
0
0
0
0
0
0
0
0
0
0
0
0
0
0
0
0
0
0
0
0
0
0
0
0
0
0
0
0
0
0
0
0
0
0
0
0
0
0
0
0
0
0
0
0
0
0
0
0
0
0
0
0
0
0
0
0
0
0
0
0
0
0
0
0
0
0
0
0
0
0
0
0
0
0
0
0
0
0
0
0
0
0
0
0
0
0
0
0
0
0
0
0
0
0
0
0
0
0
0
0
0
0
0
0
0
0
0
0
0
0
0
0
0
0
0
0
0
0
0
0
0
0
0
0
0
0
0
0
0
0
0
0
0
0
0
0
0
0
0
0
0
0
0
0
0
0
0
0
0
0
0
0
0
0
0
0
0
0
0
0
0
0
0
0
0
0
0
0
0
0
0
0
0
0
0
0
0
0
0
0
0
0
0
0
0
0
0
0
0
0
0
0
0
0
0
0
0
0
0
0
0
0
0
0
0
0
0
0
0
0
0
0
0
0
0
0
0
0
0
0
0
0
0
0
0
0
0
0
0
0
0
0
0
0
0
0
0
0
0
0
0
0
0
0
0
0
0
0
0
0
0
0
0
0
0
0
0
0
0
0
0
0
0
0
0
0
0
0
0
0
0
0
0
0
0
0
0
0
0
0
0
0
0
0
0
0
0
0
0
0
0
0
0
0
0
0
0
0
0
0
0
0
0
0
0
0
0
0
0
0
0
0
0
0
0
0
0
0
0
0
0
0
0
0
0
0
0
0
0
0
0
0
0
0
0
0
0
0
0
0
0
0
0
0
0
0
0
0
0
0
0
0
0
0
0
0
0
0
0
0
0
0
0
0
0
0
0
0
0
0
0
0
0
0
0
0
0
0
0
0
0
0
0
0
0
0
0
0
0
0
0
0
0
0
0
0
0
0
0
0
0
0
0
0
0
0
0
0
0
0
0
0
0
0
0
0
0
0
0
0
0
0
0
0
0
0
0
0
0
0
0
0
0
0
0
0
0
0
0
0
0
0
0
0
0
0
0
0
0
0
0
0
0
0
0
0
0
0
0
0
0
0
0
0
0
0
0
0
0
0
0
0
0
0
0
0
0
0
0
0
0
0
0
0
0
0
0
0
0
0
0
0
0
0
0
0
0
0
0
0
0
0
0
0
0
0
0
0
0
0
0
0
0
0
0
0
0
0
0
0
0
0
0
0
0
0
0
0
0
0
0
0
0
0
0
0
0
0
0
0
0
0
0
0
0
0
0
0
0
0
0
0
0
0
0
0
0
0
0
0
0
0
0
0
0
0
0
0
0
0
0
0
0
0
0
0
0
0
0
0
0
0
0
0
0
0
0
0
0
0
0
0
0
0
0
0
0
0
0
0
0
0
0
0
0
0
0
0
0
0
0
0
0
0
0
0
0
0
0
0
0
0
0
0
0
0
0
0
0
0
0
0
0
0
0
0
0
0
0
0
0
0
0
0
0
0
0
0
0
0
0
0
0
0
0
0
0
0
0
0
0
0
0
0
0
0
0
0
0
0
0
0
0
0
0
0
0
0
0
0
0
0
0
0
0
0
0
0
0
0
0
0
0
0
0
0
0
0
0
0
0
0
0
0
0
0
0
0
0
0
0
0
0
0
0
0
0
0
0
0
0
0
0
0
0
0
0
0
0
0
0
0
0
0
0
0
0
0
0
0
0
0
0
0
0
0
0
0
0
0
0
0
0
0
0
0
0
0
0
0
0
0
0
0
0
0
0
0
SCALARS m0s double 1
LOOKUP_TABLE table2
0
0
0
0
0
0
0
0
0
0
0
0
0
0
0
0
0
0
0
0
0
0
0
0
0
0
0
0
0
0
0
0
0
0
0
0
0
0
0
0
0
0
0
0
0
0
0
0
0
0
0
0
0
0
0
0
0
0
0
0
0
0
0
0
0
0
0
0
0
0
0
0
0
0
0
0
0
0
0
0
0
0
0
0
0
0
0
0
0
0
0
0
0
0
0
0
0
0
0
0
0
0
0
0
0
0
0
0
0
0
0
0
0
0
0
0
0
0
0
0
0
0
0
0
0
0
0
0
0
0
0
0
0
0
0
0
0
0
0
0
0
0
0
0
0
0
0
0
0
0
0
0
0
0
0
0
0
0
0
0
0
0
0
0
0
0
0
0
0
0
0
0
0
0
0
0
0
0
0
0
0
0
0
0
0
0
0
0
0
0
0
0
0
0
0
0
0
0
0
0
0
0
0
0
0
0
0
0
0
0
0
0
0
0
0
0
0
0
0
0
0
0
0
0
0
0
0
0
0
0
0
0
0
0
0
0
0
0
0
0
0
0
0
0
0
0
0
0
0
0
0
0
0
0
0
0
0
0
0
0
0
0
0
0
0
0
0
0
0
0
0
0
0
0
0
0
0
0
0
0
0
0
0
0
0
0
0
0
0
0
0
0
0
0
0
0
0
0
0
0
0
0
0
0
0
0
0
0
0
0
0
0
0
0
0
0
0
0
0
0
0
0
0
0
0
0
0
0
0
0
0
0
0
0
0
0
0
0
0
0
0
0
0
0
0
0
0
0
0
0
0
0
0
0
0
0
0
0
0
0
0
0
0
0
0
0
0
0
0
0
0
0
0
0
0
0
0
0
0
0
0
0
0
0
0
0
0
0
0
0
0
0
0
0
0
0
0
0
0
0
0
0
0
0
0
0
0
0
0
0
0
0
0
0
0
0
0
0
0
0
0
0
0
0
0
0
0
0
0
0
0
0
0
0
0
0
0
0
0
0
0
0
0
0
0
0
0
0
0
0
0
0
0
0
0
0
0
0
0
0
0
0
0
0
0
0
0
0
0
0
0
0
0
0
0
0
0
0
0
0
0
0
0
0
0
0
0
0
0
0
0
0
0
0
0
0
0
0
0
0
0
0
0
0
0
0
0
0
0
0
0
0
0
0
0
0
0
0
0
0
0
0
0
0
0
0
0
0
0
0
0
0
0
0
0
0
0
0
0
0
0
0
0
0
0
0
0
0
0
0
0
0
0
0
0
0
0
0
0
0
0
0
0
0
0
0
0
0
0
0
0
0
0
0
0
0
0
0
0
0
0
0
0
0
0
0
0
0
0
0
0
0
0
0
0
0
0
0
0
0
0
0
0
0
0
0
0
0
0
0
0
0
0
0
0
0
0
0
0
0
0
0
0
0
0
0
0
0
0
0
0
0
0
0
0
0
0
0
0
0
0
0
0
0
0
0
0
0
0
0
0
0
0
0
0
0
0
0
0
0
0
0
0
0
0
0
0
0
0
0
0
0
0
0
0
0
0
0
0
0
0
0
0
0
0
0
0
0
0
0
0
0
0
0
0
0
0
0
0
0
0
0
0
0
0
0
0
0
0
0
0
0
0
0
0
0
0
0
0
0
0
0
0
0
0
0
0
0
0
0
0
0
0
0
0
0
0
0
0
0
0
0
0
0
0
0
0
0
0
0
0
0
0
0
0
0
0
0
0
0
0
0
0
0
0
0
0
0
0
0
0
0
0
0
0
0
0
0
0
0
0
0
0
0
0
0
0
0
0
0
0
0
0
0
0
0
0
0
0
0
0
0
0
0
0
0
0
0
0
0
0
0
0
0
0
0
0
0
0
0
0
0
0
0
0
0
0
0
0
0
0
0
0
0
0
0
0
0
0
0
0
0
0
0
0
0
0
0
0
0
0
0
0
0
0
0
0
0
0
0
0
0
0
0
0
0
0
0
0
0
0
0
0
0
0
0
0
0
0
0
0
0
0
0
0
0
0
0
0
0
0
0
0
0
0
0
0
0
0
0
0
0
0
0
0
0
0
0
0
0
0
0
0
0
0
0
0
0
0
0
0
0
0
0
0
0
0
0
0
0
0
0
0
0
0
0
0
0
0
0
0
0
0
0
0
0
0
0
0
0
0
0
0
0
0
0
0
0
0
0
0
0
0
0
0
0
0
0
0
0
0
0
0
0
0
0
0
0
0
0
0
0
0
0
0
0
0
0
0
0
0
0
0
0
0
0
0
0
0
0
0
0
0
0
0
0
0
0
0
0
0
0
0
0
0
0
0
0
0
0
0
0
0
0
0
0
0
0
0
0
0
0
0
0
0
0
0
0
0
0
0
0
0
0
0
0
0
0
0
0
0
0
0
0
0
0
0
0
0
0
0
0
0
0
0
0
0
0
0
0
0
0
0
0
0
0
0
0
0
0
0
0
0
0
0
0
0
0
0
0
0
0
0
0
0
0
0
0
0
0
0
0
0
0
0
0
0
0
0
0
0
0
0
0
0
0
0
0
0
0
0
0
0
0
0
0
0
0
0
0
0
0
0
0
0
0
0
0
0
0
0
0
0
0
0
0
0
0
0
0
0
0
0
0
0
0
0
0
0
0
0
0
0
0
0
0
0
0
0
0
0
0
0
0
0
0
0
0
0
0
0
0
0
0
0
0
0
0
0
0
0
0
0
0
0
0
0
0
0
0

POINT_DATA	1200
SCALARS model double 1
LOOKUP_TABLE table0
0.171868
3.10758
-9.66859
-6.49548
-13.3589
0.422258
2.75184
-16.5319
-11.1301
-15.9214
0.820791
-12.3068
-24.6062
-11.5315
-14.7522
-1.31871
-16.9672
-17.0717
-0.258404
-7.30149
-4.3696
-22.4802
-9.58225
-19.369
-5.75411
-7.70338
10.5542
-3.16171
16.161
0.415664
13.6863
0.392036
-4.35322
-19.7028
-6.82298
-20.6977
-10.3349
-3.98243
14.6197
-7.84159
7.35391
-0.715437
12.5032
-0.470079
-1.81321
-14.3255
-17.7041
-2.4201
-9.22929
-0.282592
-8.84421
-26.8254
-13.0599
-16.3552
0.0582846
-0.287595
-19.4769
-9.9144
-15.1093
-0.21553
5.27875
-12.7001
-4.94655
-11.7249
0.340245
0.905453
-10.7558
-4.7586
-8.87532
-0.0790642
-1.4823
-13.9826
-4.7184
-7.49228
-0.408008
-5.24675
-7.09154
7.45332
2.06616
-1.61835
-15.2127
9.75182
4.77586
31.5149
7.22929
37.4889
38.1423
69.8233
31.5095
38.7234
20.7696
-10.768
33.9244
-7.08855
42.8301
0.329506
69.9262
5.06488
84.2123
24.1257
50.5934
36.2432
62.4216
74.9718
105.031
98.6367
127.366
82.2829
70.0746
37.2476
-7.78859
38.594
-5.87607
26.9512
5.90948
79.9431
3.14188
58.7952
34.992
60.795
23.0246
47.3358
97.6209
125.851
73.691
101.549
82.1339
69.4229
36.8372
-1.87046
7.33964
29.3397
-5.71121
11.3267
39.247
66.1956
11.6723
34.2763
33.4943
38.0107
20.0981
-2.04618
-2.19539
-8.70891
8.17227
2.17361
-0.994214
2.65635
-14.7457
-1.72548
-5.46757
-0.64488
3.59596
-12.1615
-0.551052
-4.94337
0.0793785
1.83065
-8.54775
-0.552581
-3.09573
-0.159101
-8.56511
-9.95931
3.88541
2.20448
-3.73636
-19.5276
9.7715
-7.61413
25.0852
-20.2572
9.97113
-6.98287
27.4735
10.6412
28.5942
19.7863
-9.3217
31.8772
-0.150215
66.7271
-8.44576
37.9754
3.07906
78.9245
22.3477
57.3465
72.6846
107.005
30.7904
68.2269
94.4575
129.633
62.857
10.4061
110.437
54.4558
78.7185
33.2729
129.525
80.0723
80.2902
49.0414
11.7501
107.363
20.1224
133.648
19.3439
131.287
29.3553
164.97
128.894
159.501
165.663
193.052
164.344
193.732
210.154
234.731
152.715
86.825
181.669
109.017
179.745
120.683
211.663
145.545
129.639
73.7132
21.0615
130.658
14.1544
99.1655
30.6417
163.271
22.8462
126.642
165.427
192.012
128.976
156.714
210.786
234.342
166.414
192.395
180.748
110.307
150.596
92.3944
211.4
147.403
179.186
127.293
129.621
73.7634
3.89928
55.079
-4.78013
15.0311
9.34256
71.3819
-1.75758
25.0528
74.2556
103.465
25.8803
53.7187
98.2483
127.499
36.7254
65.7824
107.198
66.6945
61.0462
36.3305
128.867
93.9835
77.9836
58.3858
80.9405
49.5152
-5.27887
-0.653046
21.7685
-7.0986
6.61949
2.83177
25.3773
-5.97736
7.52231
2.28592
30.4866
21.1085
-1.41506
-1.27401
-13.1152
6.32197
4.38736
-0.104942
-0.433198
-13.1722
3.38885
1.83594
-0.0636833
-0.916767
-5.43583
2.34464
-0.513306
-0.200433
-9.39403
-5.60669
7.67562
5.49749
-3.26492
-20.5948
8.0638
-7.80002
25.2843
-17.8686
5.90886
-8.73508
19.3609
16.2655
32.3654
22.9374
-7.17496
35.9698
4.86518
77.2083
-7.33553
25.4012
3.29413
59.2873
30.1296
66.5523
95.2365
128.926
21.3107
53.0666
75.0633
104.911
78.2913
41.3365
128.529
87.8992
63.3181
36.5696
106.312
77.0325
82.1161
50.6555
20.7582
129.969
30.164
163.575
15.8918
102.254
23.3112
129.752
166.626
193.92
213.271
235.392
134.557
159.165
173.658
193.78
178.803
129.087
210.396
153.974
148.76
112.246
175.361
133.475
129.291
73.7708
31.3799
162.467
23.8145
126.242
24.1102
128.655
17.5973
98.0178
214.136
235.254
168.934
193.181
174.293
193.615
136.097
158.364
210.516
155.952
179.192
135.79
175.609
135.232
149.502
118.092
129.665
74.0936
9.81657
70.1111
-1.49168
23.8913
5.08574
50.4871
-4.34194
12.5156
98.922
127.36
35.8211
64.3009
77.1086
103.284
24.7039
50.6559
129.402
101.595
79.682
65.3857
107.857
88.828
66.4859
57.71
83.3364
51.6872
-4.39135
1.66835
22.6953
-6.8893
4.60679
-3.12704
15.0334
-9.07778
0.557499
6.72565
34.025
24.5626
-1.11707
-4.77985
-10.1705
8.48607
7.17377
0.011502
-2.84948
-10.6686
4.45249
3.73682
-0.000134293
-0.494984
-2.1121
2.15407
-2.35586
-0.135388
-1.82102
-1.77988
4.55351
0.667992
-1.28622
-12.4797
4.07716
-8.68756
11.3023
-4.71997
1.45601
-4.79796
3.04795
6.18266
14.7524
8.36113
-6.90246
12.9005
-0.862186
32.2148
-3.27576
4.73086
-2.99766
10.3553
9.017
32.2078
43.1124
65.3367
0.53873
9.54739
11.857
20.4645
42.0485
27.1024
68.7833
51.972
11.3754
6.23276
21.9782
16.5845
35.2884
20.0416
6.16834
58.5908
10.4195
75.4891
-0.707351
18.4301
0.557076
23.6856
81.3781
100.374
106.67
122.843
24.775
32.2417
33.2838
39.9863
96.4142
75.0434
113.933
89.2225
31.8373
24.9794
38.1038
30.0917
54.7872
29.7683
10.7549
74.7165
7.29466
55.41
1.23304
23.2748
0.046466
16.2896
107.239
122.767
82.6107
99.9954
33.632
40.1481
25.6155
32.6148
114.221
90.5005
97.2364
79.1576
38.4682
30.7531
32.9168
27.0661
55.3727
30.1859
0.152745
25.5558
-3.71283
4.30761
-2.35111
6.84162
-1.86358
1.29598
45.2207
64.7959
14.6382
32.4399
13.5541
21.0358
4.191
10.2652
70.1201
59.7114
43.1151
38.887
23.916
20.5442
14.9953
13.574
36.4079
21.1788
-1.29852
-6.24175