# vtk DataFile Version 3.0
Gravity inversion using rectangular prisms
ASCII
DATASET UNSTRUCTURED_GRID

POINTS	1200	double
100	100	100
100	100	300
100	100	500
100	100	700
100	100	900
100	300	100
100	300	300
100	300	500
100	300	700
100	300	900
100	500	100
100	500	300
100	500	500
100	500	700
100	500	900
100	700	100
100	700	300
100	700	500
100	700	700
100	700	900
100	900	100
50	850	250
50	850	350
50	950	250
50	950	350
150	850	250
150	850	350
150	950	250
150	950	350
100	900	500
100	900	700
100	900	900
100	1100	100
50	1050	250
50	1050	350
50	1150	250
50	1150	350
150	1050	250
150	1050	350
150	1150	250
150	1150	350
100	1100	500
100	1100	700
100	1100	900
100	1300	100
100	1300	300
100	1300	500
100	1300	700
100	1300	900
100	1500	100
100	1500	300
100	1500	500
100	1500	700
100	1500	900
100	1700	100
100	1700	300
100	1700	500
100	1700	700
100	1700	900
100	1900	100
100	1900	300
100	1900	500
100	1900	700
100	1900	900
300	100	100
300	100	300
300	100	500
300	100	700
300	100	900
300	300	100
300	300	300
300	300	500
300	300	700
300	300	900
300	500	100
300	500	300
300	500	500
300	500	700
300	500	900
300	700	100
250	650	250
250	650	350
250	750	250
250	750	350
350	650	250
350	650	350
350	750	250
350	750	350
300	700	500
300	700	700
300	700	900
250	850	50
250	850	150
250	950	50
250	950	150
350	850	50
350	850	150
350	950	50
350	950	150
250	850	250
250	850	350
250	950	250
250	950	350
350	850	250
350	850	350
350	950	250
350	950	350
300	900	500
300	900	700
300	900	900
250	1050	50
250	1050	150
250	1150	50
250	1150	150
350	1050	50
350	1050	150
350	1150	50
350	1150	150
250	1050	250
250	1050	350
250	1150	250
250	1150	350
350	1050	250
350	1050	350
350	1150	250
350	1150	350
300	1100	500
300	1100	700
300	1100	900
300	1300	100
250	1250	250
250	1250	350
250	1350	250
250	1350	350
350	1250	250
350	1250	350
350	1350	250
350	1350	350
300	1300	500
300	1300	700
300	1300	900
300	1500	100
300	1500	300
300	1500	500
300	1500	700
300	1500	900
300	1700	100
300	1700	300
300	1700	500
300	1700	700
300	1700	900
300	1900	100
300	1900	300
300	1900	500
300	1900	700
300	1900	900
500	100	100
500	100	300
500	100	500
500	100	700
500	100	900
500	300	100
500	300	300
500	300	500
500	300	700
500	300	900
500	500	100
450	450	250
450	450	350
450	550	250
450	550	350
550	450	250
550	450	350
550	550	250
550	550	350
500	500	500
500	500	700
500	500	900
450	650	50
450	650	150
450	750	50
450	750	150
550	650	50
550	650	150
550	750	50
550	750	150
450	650	250
450	650	350
450	750	250
450	750	350
550	650	250
550	650	350
550	750	250
550	750	350
450	650	450
450	650	550
450	750	450
450	750	550
550	650	450
550	650	550
550	750	450
550	750	550
500	700	700
500	700	900
450	850	50
450	850	150
450	950	50
450	950	150
550	850	50
550	850	150
550	950	50
550	950	150
450	850	250
450	850	350
450	950	250
450	950	350
550	850	250
550	850	350
550	950	250
550	950	350
450	850	450
450	850	550
450	950	450
450	950	550
550	850	450
550	850	550
550	950	450
550	950	550
500	900	700
500	900	900
450	1050	50
450	1050	150
450	1150	50
450	1150	150
550	1050	50
550	1050	150
550	1150	50
550	1150	150
450	1050	250
450	1050	350
450	1150	250
450	1150	350
550	1050	250
550	1050	350
550	1150	250
550	1150	350
450	1050	450
450	1050	550
450	1150	450
450	1150	550
550	1050	450
550	1050	550
550	1150	450
550	1150	550
500	1100	700
500	1100	900
450	1250	50
450	1250	150
450	1350	50
450	1350	150
550	1250	50
550	1250	150
550	1350	50
550	1350	150
450	1250	250
450	1250	350
450	1350	250
450	1350	350
550	1250	250
550	1250	350
550	1350	250
550	1350	350
450	1250	450
450	1250	550
450	1350	450
450	1350	550
550	1250	450
550	1250	550
550	1350	450
550	1350	550
500	1300	700
500	1300	900
500	1500	100
450	1450	250
450	1450	350
450	1550	250
450	1550	350
550	1450	250
550	1450	350
550	1550	250
550	1550	350
500	1500	500
500	1500	700
500	1500	900
500	1700	100
500	1700	300
500	1700	500
500	1700	700
500	1700	900
500	1900	100
500	1900	300
500	1900	500
500	1900	700
500	1900	900
700	100	100
700	100	300
700	100	500
700	100	700
700	100	900
700	300	100
700	300	300
700	300	500
700	300	700
700	300	900
700	500	100
650	450	250
650	450	350
650	550	250
650	550	350
750	450	250
750	450	350
750	550	250
750	550	350
700	500	500
700	500	700
700	500	900
650	650	50
650	650	150
650	750	50
650	750	150
750	650	50
750	650	150
750	750	50
750	750	150
650	650	250
650	650	350
650	750	250
650	750	350
750	650	250
750	650	350
750	750	250
750	750	350
650	650	450
650	650	550
650	750	450
650	750	550
750	650	450
750	650	550
750	750	450
750	750	550
700	700	700
700	700	900
650	850	50
650	850	150
650	950	50
650	950	150
750	850	50
750	850	150
750	950	50
750	950	150
650	850	250
650	850	350
650	950	250
650	950	350
750	850	250
750	850	350
750	950	250
750	950	350
650	850	450
650	850	550
650	950	450
650	950	550
750	850	450
750	850	550
750	950	450
750	950	550
700	900	700
700	900	900
650	1050	50
650	1050	150
650	1150	50
650	1150	150
750	1050	50
750	1050	150
750	1150	50
750	1150	150
650	1050	250
650	1050	350
650	1150	250
650	1150	350
750	1050	250
750	1050	350
750	1150	250
750	1150	350
650	1050	450
650	1050	550
650	1150	450
650	1150	550
750	1050	450
750	1050	550
750	1150	450
750	1150	550
700	1100	700
700	1100	900
650	1250	50
650	1250	150
650	1350	50
650	1350	150
750	1250	50
750	1250	150
750	1350	50
750	1350	150
650	1250	250
650	1250	350
650	1350	250
650	1350	350
750	1250	250
750	1250	350
750	1350	250
750	1350	350
650	1250	450
650	1250	550
650	1350	450
650	1350	550
750	1250	450
750	1250	550
750	1350	450
750	1350	550
700	1300	700
700	1300	900
700	1500	100
650	1450	250
650	1450	350
650	1550	250
650	1550	350
750	1450	250
750	1450	350
750	1550	250
750	1550	350
700	1500	500
700	1500	700
700	1500	900
700	1700	100
700	1700	300
700	1700	500
700	1700	700
700	1700	900
700	1900	100
700	1900	300
700	1900	500
700	1900	700
700	1900	900
900	100	100
900	100	300
900	100	500
900	100	700
900	100	900
900	300	100
900	300	300
900	300	500
900	300	700
900	300	900
900	500	100
850	450	250
850	450	350
850	550	250
850	550	350
950	450	250
950	450	350
950	550	250
950	550	350
900	500	500
900	500	700
900	500	900
850	650	50
850	650	150
850	750	50
850	750	150
950	650	50
950	650	150
950	750	50
950	750	150
850	650	250
850	650	350
850	750	250
850	750	350
950	650	250
950	650	350
950	750	250
950	750	350
850	650	450
850	650	550
850	750	450
850	750	550
950	650	450
950	650	550
950	750	450
950	750	550
900	700	700
900	700	900
850	850	50
850	850	150
850	950	50
850	950	150
950	850	50
950	850	150
950	950	50
950	950	150
850	850	250
850	850	350
850	950	250
850	950	350
950	850	250
950	850	350
950	950	250
950	950	350
850	850	450
850	850	550
850	950	450
850	950	550
950	850	450
950	850	550
950	950	450
950	950	550
900	900	700
900	900	900
850	1050	50
850	1050	150
850	1150	50
850	1150	150
950	1050	50
950	1050	150
950	1150	50
950	1150	150
850	1050	250
850	1050	350
850	1150	250
850	1150	350
950	1050	250
950	1050	350
950	1150	250
950	1150	350
850	1050	450
850	1050	550
850	1150	450
850	1150	550
950	1050	450
950	1050	550
950	1150	450
950	1150	550
900	1100	700
900	1100	900
850	1250	50
850	1250	150
850	1350	50
850	1350	150
950	1250	50
950	1250	150
950	1350	50
950	1350	150
850	1250	250
850	1250	350
850	1350	250
850	1350	350
950	1250	250
950	1250	350
950	1350	250
950	1350	350
850	1250	450
850	1250	550
850	1350	450
850	1350	550
950	1250	450
950	1250	550
950	1350	450
950	1350	550
900	1300	700
900	1300	900
900	1500	100
900	1500	300
900	1500	500
900	1500	700
900	1500	900
900	1700	100
900	1700	300
900	1700	500
900	1700	700
900	1700	900
900	1900	100
900	1900	300
900	1900	500
900	1900	700
900	1900	900
1100	100	100
1100	100	300
1100	100	500
1100	100	700
1100	100	900
1100	300	100
1100	300	300
1100	300	500
1100	300	700
1100	300	900
1100	500	100
1050	450	250
1050	450	350
1050	550	250
1050	550	350
1150	450	250
1150	450	350
1150	550	250
1150	550	350
1100	500	500
1100	500	700
1100	500	900
1050	650	50
1050	650	150
1050	750	50
1050	750	150
1150	650	50
1150	650	150
1150	750	50
1150	750	150
1050	650	250
1050	650	350
1050	750	250
1050	750	350
1150	650	250
1150	650	350
1150	750	250
1150	750	350
1050	650	450
1050	650	550
1050	750	450
1050	750	550
1150	650	450
1150	650	550
1150	750	450
1150	750	550
1100	700	700
1100	700	900
1050	850	50
1050	850	150
1050	950	50
1050	950	150
1150	850	50
1150	850	150
1150	950	50
1150	950	150
1050	850	250
1050	850	350
1050	950	250
1050	950	350
1150	850	250
1150	850	350
1150	950	250
1150	950	350
1050	850	450
1050	850	550
1050	950	450
1050	950	550
1150	850	450
1150	850	550
1150	950	450
1150	950	550
1100	900	700
1100	900	900
1050	1050	50
1050	1050	150
1050	1150	50
1050	1150	150
1150	1050	50
1150	1050	150
1150	1150	50
1150	1150	150
1050	1050	250
1050	1050	350
1050	1150	250
1050	1150	350
1150	1050	250
1150	1050	350
1150	1150	250
1150	1150	350
1050	1050	450
1050	1050	550
1050	1150	450
1050	1150	550
1150	1050	450
1150	1050	550
1150	1150	450
1150	1150	550
1100	1100	700
1100	1100	900
1050	1250	50
1050	1250	150
1050	1350	50
1050	1350	150
1150	1250	50
1150	1250	150
1150	1350	50
1150	1350	150
1050	1250	250
1050	1250	350
1050	1350	250
1050	1350	350
1150	1250	250
1150	1250	350
1150	1350	250
1150	1350	350
1050	1250	450
1050	1250	550
1050	1350	450
1050	1350	550
1150	1250	450
1150	1250	550
1150	1350	450
1150	1350	550
1100	1300	700
1100	1300	900
1100	1500	100
1100	1500	300
1100	1500	500
1100	1500	700
1100	1500	900
1100	1700	100
1100	1700	300
1100	1700	500
1100	1700	700
1100	1700	900
1100	1900	100
1100	1900	300
1100	1900	500
1100	1900	700
1100	1900	900
1300	100	100
1300	100	300
1300	100	500
1300	100	700
1300	100	900
1300	300	100
1300	300	300
1300	300	500
1300	300	700
1300	300	900
1300	500	100
1250	450	250
1250	450	350
1250	550	250
1250	550	350
1350	450	250
1350	450	350
1350	550	250
1350	550	350
1300	500	500
1300	500	700
1300	500	900
1250	650	50
1250	650	150
1250	750	50
1250	750	150
1350	650	50
1350	650	150
1350	750	50
1350	750	150
1250	650	250
1250	650	350
1250	750	250
1250	750	350
1350	650	250
1350	650	350
1350	750	250
1350	750	350
1250	650	450
1250	650	550
1250	750	450
1250	750	550
1350	650	450
1350	650	550
1350	750	450
1350	750	550
1300	700	700
1300	700	900
1250	850	50
1250	850	150
[...]
CELL_DATA	1200
SCALARS model double 1
LOOKUP_TABLE table0
0.167155
3.16839
-9.71152
-6.49143
-13.2908
0.418567
2.79218
-16.6151
-11.1259
-15.8534
0.820501
-12.2584
-24.6913
-11.5171
-14.688
-1.30248
-16.9201
-17.1629
-0.235223
-7.24666
-4.3902
-22.4156
-9.51441
-19.2946
-5.69305
-7.64105
10.6151
-3.09484
16.2214
0.319675
13.7134
0.438693
-4.37341
-19.6257
-6.78335
-20.629
-10.2967
-3.91392
14.664
-7.77845
7.39245
-0.814544
12.529
-0.424794
-1.79731
-14.2784
-17.7986
-2.40279
-9.17616
-0.297498
-8.79503
-26.918
-13.0545
-16.2943
0.0573269
-0.263731
-19.547
-9.9046
-15.0509
-0.215645
5.31667
-12.7555
-4.9299
-11.6634
0.336121
0.952169
-10.8228
-4.75737
-8.81383
-0.0781892
-1.45026
-14.065
-4.71987
-7.43215
-0.423014
-5.2078
-7.18093
7.45834
2.12048
-1.61782
-15.1302
9.7293
4.84475
31.515
7.30043
37.4768
38.1986
69.8389
31.4081
38.7354
20.8127
-10.767
33.9257
-7.09394
42.8441
0.325014
69.939
5.07097
84.2358
24.1782
50.6353
36.2934
62.4783
75.0117
105.084
98.6635
127.441
82.1658
70.0894
37.2818
-7.78376
38.6101
-5.86745
26.9637
5.91292
79.9692
3.14544
58.8005
35.0419
60.8412
23.0747
47.3644
97.6474
125.919
73.7339
101.596
82.0255
69.4359
36.87
-1.86527
7.40156
29.3509
-5.64397
11.3458
39.3003
66.2234
11.7348
34.3007
33.4029
38.0154
20.1393
-2.04062
-2.14744
-8.80224
8.16784
2.22439
-0.988097
2.69089
-14.8266
-1.72248
-5.41583
-0.650746
3.63715
-12.2284
-0.540931
-4.88771
0.0807125
1.86141
-8.60992
-0.552321
-3.05072
-0.151425
-8.52863
-10.0372
3.8822
2.24708
-3.73346
-19.4519
9.75705
-7.54333
25.0889
-20.1899
9.96049
-6.92253
27.481
10.5518
28.5948
19.8207
-9.32145
31.9022
-0.158865
66.7467
-8.44523
37.9922
3.0668
78.9661
22.4074
57.3486
72.7299
107.034
30.8372
68.2381
94.4782
129.672
62.6767
10.4418
110.252
54.4815
78.5472
33.301
129.345
80.0859
80.2953
49.0628
11.7457
107.396
20.1104
133.678
19.3262
131.313
29.3454
165.018
128.908
159.558
165.671
193.131
164.354
193.787
210.149
234.799
152.525
86.8225
181.473
108.99
179.552
120.661
211.462
145.499
129.646
73.7255
21.0656
130.681
14.163
99.1953
30.6355
163.31
22.8409
126.66
165.439
192.087
128.997
156.771
210.784
234.413
166.432
192.457
180.557
110.264
150.431
92.3398
211.206
147.343
179.016
127.225
129.625
73.7744
3.9044
55.0925
-4.77804
15.0507
9.3225
71.4204
-1.75798
25.0638
74.3086
103.503
25.9465
53.7417
98.2797
127.549
36.7792
65.8116
107.06
66.635
60.9315
36.2607
128.731
93.9187
77.8719
58.3143
80.9373
49.5348
-5.26468
-0.580868
21.7961
-7.03189
6.64086
2.89384
25.4072
-5.91958
7.54479
2.19973
30.4753
21.1402
-1.43679
-1.23525
-13.1836
6.31798
4.42471
-0.102452
-0.392066
-13.2262
3.3905
1.87767
-0.0556281
-0.916567
-5.47705
2.33952
-0.487844
-0.201241
-9.36274
-5.65514
7.67412
5.51954
-3.24672
-20.5371
8.05449
-7.75339
25.2904
-17.8257
5.89571
-8.70206
19.3594
16.199
32.3697
22.9495
-7.16603
36.002
4.85828
77.2221
-7.33133
25.4235
3.29003
59.3238
30.1554
66.559
95.2468
128.956
21.3202
53.0611
75.0592
104.92
78.146
41.3428
128.37
87.8895
63.202
36.5682
106.185
77.0198
82.1212
50.6545
20.7473
130.022
30.1519
163.606
15.8968
102.287
23.3177
129.795
166.608
193.953
213.255
235.436
134.529
159.171
173.631
193.8
178.629
129.046
210.215
153.911
148.623
112.214
175.22
133.427
129.297
73.7615
31.3666
162.498
23.8054
126.287
24.1178
128.689
17.5893
98.0465
214.12
235.304
168.926
193.224
174.27
193.64
136.072
158.379
210.341
155.877
179.038
135.709
175.474
135.175
149.383
118.031
129.67
74.0834
9.81287
70.1206
-1.49282
23.9176
5.09029
50.519
-4.331
12.5223
98.9384
127.401
35.8537
64.3259
77.111
103.308
24.7199
50.6732
129.277
101.521
79.5808
65.3096
107.758
88.7688
66.4038
57.6463
83.3373
51.6853
-4.36313
1.71698
22.72
-6.84259
4.62496
-3.09187
15.0555
-9.03906
0.577464
6.67034
34.0166
24.5743
-1.11783
-4.75361
-10.2094
8.47571
7.19508
0.00707701
-2.8137
-10.6961
4.44312
3.76235
0.00893684
-0.518838
-2.14407
2.1481
-2.34499
-0.131617
-1.80431
-1.80027
4.5595
0.675147
-1.28527
-12.4491
4.06605
-8.67018
11.2974
-4.7072
1.44005
-4.78791
3.03428
6.16199
14.7632
8.35881
-6.89874
12.9137
-0.863487
32.2488
-3.28583
4.74586
-2.99954
10.337
9.02836
32.1999
43.1028
65.3369
0.54499
9.53106
11.8646
20.4498
41.9696
27.0996
68.6996
51.9643
11.3408
6.2362
21.9409
16.587
35.2963
20.0286
6.17019
58.6104
10.4356
75.5194
-0.710547
18.4605
0.562569
23.6816
81.3699
100.376
106.656
122.857
24.7679
32.2267
33.2835
39.9754
96.3222
75.0265
113.842
89.1995
31.7998
24.9817
38.0685
30.0931
54.7968
29.749
10.7563
74.7451
7.29487
55.4209
1.22752
23.2746
0.0475918
16.3149
107.223
122.784
82.6064
100.009
33.6346
40.1399
25.6103
32.6093
114.135
90.4718
97.1576
79.1245
38.4355
30.7534
32.8868
27.065
55.3812
30.1665
0.148395
25.579
-3.71417
4.31553
-2.35513
6.82292
-1.86561
1.30302
45.2116
64.8133
14.6447
32.4491
13.5608
21.0346
4.19813
10.2622
70.0559
59.6776
43.0624
38.8506
23.8899
20.5402
14.9741
13.5659
36.4196
21.1663
-1.30787
-6.23783
2.84238
15.7541
9.82913
-0.326613
-2.50201
-3.80268
4.37252
2.02261
-0.0267585
0.253984
-3.75554
2.3707
0.289798
0.0289335
0.307351
1.1791
0.252947
-6.0336
0.506242
1.96288
0.736729
-1.6497
-7.40056
1.51568
3.02233
-1.5865
1.07447
-4.98501
9.55397
-4.81643
4.67109
-13.5809
-9.28169
-11.2694
-13.3852
1.76277
1.98367
0.673672
-4.04854
3.86534
-6.01535
-0.826977
-25.0137
-4.6398
-12.9075
-15.941
-24.9841
-13.5004
-35.7646
-47.4592
-69.8807
-14.8508
-10.2373
-25.7681
-21.1859
-45.0441
-32.191
-72.0494
-57.6634
-30.6384
-23.8781
-1.851
-13.0568
-2.66307
-19.0552
-8.64888
-51.9875
-13.3508
-69.3575
-29.203
-37.4701
-37.7491
-45.2208
-85.6908
-105.402
-110.653
-127.747
-35.6222
-29.8144
-41.5339
-34.6972
-99.5804
-81.0106
-116.749
-95.0483
-50.4716
-32.6398
-3.44166
-19.3157
-2.17215
-13.5619
-12.9491
-68.6013
-8.78693
-49.9906
-37.4767
-44.7822
-28.5794
-36.3194
-110.384
-127.13
-85.0914
-103.811
-41.1777
-34.7679
-34.6684
-30.2179
-116.463
-95.8675
-98.8199
-83.7433
-48.7836
-32.2771
0.551799
-4.41828
0.301501
1.15653
-0.835873
-22.1456
3.10485
-3.13667
-15.3172
-23.5588
-4.73211
-11.7839
-47.65
-68.1599
-17.1409
-35.4744
-24.6399
-22.6274
-14.9551
-14.6645
-71.1569
-63.172
-43.7463
-41.1562
-30.3731
-22.9507
0.777053
4.62738
-2.43814
-11.3305
-12.3303
0.320283
1.09736
3.71589
-2.69958
-6.324
0.0938981
-1.05982
3.25773
-1.80748
-5.38092
-0.0643774
0.709851
4.42931
-0.722059
-7.39131
0.49011
6.01828
4.18202
-4.4355
-11.0415
3.33664
12.7965
-7.47731
3.39042
-22.1285
13.7331
-9.05672
0.560938
-27.7427
-19.938
-27.2145
-26.0946
2.8186
-17.8503
-6.70808
-51.565
3.83839
-27.2306
-9.24789
-69.0738
-27.023
-57.0335
-80.5186
-109.794
-37.6165
-70.6681
-102.649
-134.398
-65.2146
-43.8354
-108.461
-84.9182
-78.21
-51.9366
-128.547
-99.0777
-73.9786
-52.2168
-18.1774
-94.273
-26.2643
-122.649
-24.3636
-121.325
-33.5961
-155.393
-139.544
-164.357
-178.134
-198.783
-173.4
-199.932
-219.29
-241.304
-150.694
-120.415
-176.973
-141.698
-178.46
-140.554
-209.716
-165.861
-97.7086
-72.4857
-109.6
-91.2906
-115.496
-98.5927
-124.922
-113.528
-74.2298
-26.3943
-121.946
-19.5436
-92.4204
-34.299
-154.961
-25.9174
-119.728
-177.983
-198.155
-139.328
-162.687
-219.276
-240.686
-173.26
-198.237
-176.945
-143.366
-150.663
-125.61
-210.082
-168.441
-179.335
-147.905
-119.248
-74.15
-7.95751
-48.343
1.63084
-13.6055
-10.8346
-65.6297
0.399123
-22.4419
-80.8907
-107.795
-29.0304
-55.6155
-103
-132.278
-40.0614
-69.0245
-109.036
-95.0282
-67.7063
-62.2731
-129.999
-111.867
-80.6971
-73.1109
-76.0638
-51.8571
3.78992
0.466325
-20.6697
9.46985
-3.2123
-4.82846
-26.4673
5.93579
-6.54167
-7.19046
-29.2674
-25.8484
0.712584
3.19622
9.79217
-7.25567
-10.705
-0.0764451
-0.186709
8.9417
-4.89888
-8.31085
-0.481231
0.922458
7.17041
0.843672
-3.57336
-0.1142
9.7845
10.4459
0.201825
-5.14455
4.02333
13.6479
-7.99977
-0.674081
-27.9407
11.0017
-5.80382
-0.611351
-22.5561
-12.8797
-21.0168
-18.9593
3.62977
-27.4893
-9.88745
-69.9758
2.76493
-19.9238
-6.56186
-53.5946
-39.2036
-71.5652
-103.848
-135.376
-31.2069
-59.5956
-83.5517
-112.677
-75.1539
-48.5755
-125.715
-95.8329
-58.4191
-37.0629
-101.018
-76.9038
-69.5623
-45.7623
-23.9652
-121.849
-33.8255
-156.011
-17.2434
-95.0187
-25.1597
-122.284
-173.568
-200.732
-218.629
-241.988
-140.207
-167.059
-176.377
-201.263
-175.39
-136.636
-206.481
-162.459
-141.916
-108.637
-167.118
-131.731
-116.202
-69.2702
-34.4955
-155.456
-25.7076
-119.87
-25.6097
-121.573
-18.664
-92.8591
-218.291
-241.167
-172.67
-198.502
-175.463
-199.957
-138.038
-163.734
-207.544
-166.538
-177.353
-146.667
-171.046
-140.231
-146.462
-124.387
-117.869
-69.38
-10.9318
-66.1628
-0.0554887
-23.7639
-8.16573
-51.1551
0.393105
-17.8683
-103.413
-132.713
-41.4002
-69.6408
-82.0867
-109.026
-32.2939
-57.0186
-127.828
-109.986
-78.2981
-70.6039
-102.691
-89.8854
-62.1496
-56.8424
-71.8585
-46.1653
3.3238
-6.57625
-26.9392
4.37825
-7.07196
-3.72529
-20.9025
5.55053
-4.73976
-0.451884
-24.3602
-19.7754
0.296181
4.34631
14.954
-4.61283
-6.03973
-0.0962008
-1.17537
12.164
-3.87177
-4.7923
-0.195926
-3.4716
7.43619
3.51814
3.98571
-0.349763
1.7439
16.239
9.8596
8.03442
1.71623
0.393282
12.5904
3.88333
4.35938
2.23757
-17.7501
-39.9971
-50.9711
-75.2124
1.03306
-11.2821
-18.4801
-33.4382
-17.7952
-22.2495
-10.111
-4.53818
-53.4567
-9.09118
-68.3012
3.17155
-14.5568
1.08987
-22.58
-88.0145
-112.643
-110.797
-135.642
-37.355
-56.7576
-48.2365
-69.2923
-87.7584
-59.3471
-99.3685
-76.7524
-32.0826
-10.1258
-44.0223
-28.8413
-50.7285
-24.8175
-10.2023
-67.5524
-7.29657
-50.4446
1.27443
-21.4478
1.73363
-13.6707
-109.238
-133.999
-84.3389
-108.652
-46.1612
-67.7966
-32.6449
-53.2834
-52.6169
-52.0696
-25.412
1.20174
-48.4497
-71.2879
-19.0821
-37.7509
-15.0556
-30.8217
-1.65283
-13.0198
-12.115
-25.4424
-11.6848
1.22129
3.71385
18.4841
-0.98515
2.30802
0.0202756
-1.81982
18.6716
3.3594
5.80118
0.014313
-5.1293
13.4475
0.154456
3.82687
-0.118108
-5.78134
6.81
4.22616
6.64257
-0.263918
-2.20515
17.5703
13.4515
13.295
-0.210323
2.34268
22.9654
14.9784
14.8561
2.52428
3.94857
13.348
0.918741
7.23536
4.185
-0.840047
-15.6428
-4.67795
-20.4679
10.1048
-3.35378
6.56188
-7.16114
1.22985
-17.4365
-2.4301
4.23863
-3.71868
-19.6505
0.67825
-13.666
6.54236
-6.95599
8.57671
-3.53641
-4.04498
-19.1827
-3.37576
1.50022
4.73651
15.4958
-3.34696
4.9095
-0.175857
4.66317
27.5229
9.38422
12.1618
-0.702587
-2.65352
20.4351
6.63141
10.5408
0.262471
-7.08459
13.8394
1.64765
6.97663
SCALARS m0 double 1
LOOKUP_TABLE table1
0
0
0
0
0
0
0
0
0
0
0
0
0
0
0
0
0
0
0
0
0
0
0
0
0
0
0
0
0
0
0
0
0
0
0
0
0
0
0
0
0
0
0
0
0
0
0
0
0
0
0
0
0
0
0
0
0
0
0
0
0
0
0
0
0
0
0
0
0
0
0
0
0
0
0
0
0
0
0
0
0
0
0
0
0
0
0
0
0
0
0
0
0
0
0
0
0
0
0
0
0
0
0
0
0
0
0
0
0
0
0
0
0
0
0
0
0
0
0
0
0
0
0
0
0
0
0
0
0
0
0
0
0
0
0
0
0
0
0
0
0
0
0
0
0
0
0
0
0
0
0
0
0
0
0
0
0
0
0
0
0
0
0
0
0
0
0
0
0
0
0
0
0
0
0
0
0
0
0
0
0
0
0
0
0
0
0
0
0
0
0
0
0
0
0
0
0
0
0
0
0
0
0
0
0
0
0
0
0
0
0
0
0
0
0
0
0
0
0
0
0
0
0
0
0
0
0
0
0
0
0
0
0
0
0
0
0
0
0
0
0
0
0
0
0
0
0
0
0
0
0
0
0
0
0
0
0
0
0
0
0
0
0
0
0
0
0
0
0
0
0
0
0
0
0
0
0
0
0
0
0
0
0
0
0
0
0
0
0
0
0
0
0
0
0
0
0
0
0
0
0
0
0
0
0
0
0
0
0
0
0
0
0
0
0
0
0
0
0
0
0
0
0
0
0
0
0
0
0
0
0
0
0
0
0
0
0
0
0
0
0
0
0
0
0
0
0
0
0
0
0
0
0
0
0
0
0
0
0
0
0
0
0
0
0
0
0
0
0
0
0
0
0
0
0
0
0
0
0
0
0
0
0
0
0
0
0
0
0
0
0
0
0
0
0
0
0
0
0
0
0
0
0
0
0
0
0
0
0
0
0
0
0
0
0
0
0
0
0
0
0
0
0
0
0
0
0
0
0
0
0
0
0
0
0
0
0
0
0
0
0
0
0
0
0
0
0
0
0
0
0
0
0
0
0
0
0
0
0
0
0
0
0
0
0
0
0
0
0
0
0
0
0
0
0
0
0
0
0
0
0
0
0
0
0
0
0
0
0
0
0
0
0
0
0
0
0
0
0
0
0
0
0
0
0
0
0
0
0
0
0
0
0
0
0
0
0
0
0
0
0
0
0
0
0
0
0
0
0
0
0
0
0
0
0
0
0
0
0
0
0
0
0
0
0
0
0
0
0
0
0
0
0
0
0
0
0
0
0
0
0
0
0
0
0
0
0
0
0
0
0
0
0
0
0
0
0
0
0
0
0
0
0
0
0
0
0
0
0
0
0
0
0
0
0
0
0
0
0
0
0
0
0
0
0
0
0
0
0
0
0
0
0
0
0
0
0
0
0
0
0
0
0
0
0
0
0
0
0
0
0
0
0
0
0
0
0
0
0
0
0
0
0
0
0
0
0
0
0
0
0
0
0
0
0
0
0
0
0
0
0
0
0
0
0
0
0
0
0
0
0
0
0
0
0
0
0
0
0
0
0
0
0
0
0
0
0
0
0
0
0
0
0
0
0
0
0
0
0
0
0
0
0
0
0
0
0
0
0
0
0
0
0
0
0
0
0
0
0
0
0
0
0
0
0
0
0
0
0
0
0
0
0
0
0
0
0
0
0
0
0
0
0
0
0
0
0
0
0
0
0
0
0
0
0
0
0
0
0
0
0
0
0
0
0
0
0
0
0
0
0
0
0
0
0
0
0
0
0
0
0
0
0
0
0
0
0
0
0
0
0
0
0
0
0
0
0
0
0
0
0
0
0
0
0
0
0
0
0
0
0
0
0
0
0
0
0
0
0
0
0
0
0
0
0
0
0
0
0
0
0
0
0
0
0
0
0
0
0
0
0
0
0
0
0
0
0
0
0
0
0
0
0
0
0
0
0
0
0
0
0
0
0
0
0
0
0
0
0
0
0
0
0
0
0
0
0
0
0
0
0
0
0
0
0
0
0
0
0
0
0
0
0
0
0
0
0
0
0
0
0
0
0
0
0
0
0
0
0
0
0
0
0
0
0
0
0
0
0
0
0
0
0
0
0
0
0
0
0
0
0
0
0
0
0
0
0
0
0
0
0
0
0
0
0
0
0
0
0
0
0
0
0
0
0
0
0
0
0
0
0
0
0
0
0
0
0
0
0
0
0
0
0
0
0
0
0
0
0
0
0
0
0
0
0
0
0
0
0
0
0
0
0
0
0
0
0
0
0
0
0
0
0
0
0
0
0
0
0
0
0
0
0
0
0
0
0
0
0
0
0
0
0
0
0
0
0
0
0
0
0
0
0
0
0
0
0
0
0
0
0
0
0
0
0
0
0
0
0
0
0
0
0
0
0
0
0
0
0
0
0
0
0
0
0
0
0
0
0
0
0
0
0
0
0
0
0
0
0
0
0
0
0
0
0
0
0
0
0
0
0
0
0
0
0
0
0
0
0
0
0
0
0
0
0
0
0
0
0
0
0
0
0
0
0
0
0
0
0
0
0
0
0
0
0
0
0
0
0
0
0
0
0
0
0
0
0
0
0
0
0
0
0
0
0
0
0
0
0
0
0
0
0
0
0
0
0
0
0
0
0
0
0
0
0
0
0
0
0
0
0
0
0
0
0
0
0
0
0
0
0
0
0
0
0
0
0
0
0
0
0
0
0
0
0
0
0
0
0
0
SCALARS m0s double 1
LOOKUP_TABLE table2
0
0
0
0
0
0
0
0
0
0
0
0
0
0
0
0
0
0
0
0
0
0
0
0
0
0
0
0
0
0
0
0
0
0
0
0
0
0
0
0
0
0
0
0
0
0
0
0
0
0
0
0
0
0
0
0
0
0
0
0
0
0
0
0
0
0
0
0
0
0
0
0
0
0
0
0
0
0
0
0
0
0
0
0
0
0
0
0
0
0
0
0
0
0
0
0
0
0
0
0
0
0
0
0
0
0
0
0
0
0
0
0
0
0
0
0
0
0
0
0
0
0
0
0
0
0
0
0
0
0
0
0
0
0
0
0
0
0
0
0
0
0
0
0
0
0
0
0
0
0
0
0
0
0
0
0
0
0
0
0
0
0
0
0
0
0
0
0
0
0
0
0
0
0
0
0
0
0
0
0
0
0
0
0
0
0
0
0
0
0
0
0
0
0
0
0
0
0
0
0
0
0
0
0
0
0
0
0
0
0
0
0
0
0
0
0
0
0
0
0
0
0
0
0
0
0
0
0
0
0
0
0
0
0
0
0
0
0
0
0
0
0
0
0
0
0
0
0
0
0
0
0
0
0
0
0
0
0
0
0
0
0
0
0
0
0
0
0
0
0
0
0
0
0
0
0
0
0
0
0
0
0
0
0
0
0
0
0
0
0
0
0
0
0
0
0
0
0
0
0
0
0
0
0
0
0
0
0
0
0
0
0
0
0
0
0
0
0
0
0
0
0
0
0
0
0
0
0
0
0
0
0
0
0
0
0
0
0
0
0
0
0
0
0
0
0
0
0
0
0
0
0
0
0
0
0
0
0
0
0
0
0
0
0
0
0
0
0
0
0
0
0
0
0
0
0
0
0
0
0
0
0
0
0
0
0
0
0
0
0
0
0
0
0
0
0
0
0
0
0
0
0
0
0
0
0
0
0
0
0
0
0
0
0
0
0
0
0
0
0
0
0
0
0
0
0
0
0
0
0
0
0
0
0
0
0
0
0
0
0
0
0
0
0
0
0
0
0
0
0
0
0
0
0
0
0
0
0
0
0
0
0
0
0
0
0
0
0
0
0
0
0
0
0
0
0
0
0
0
0
0
0
0
0
0
0
0
0
0
0
0
0
0
0
0
0
0
0
0
0
0
0
0
0
0
0
0
0
0
0
0
0
0
0
0
0
0
0
0
0
0
0
0
0
0
0
0
0
0
0
0
0
0
0
0
0
0
0
0
0
0
0
0
0
0
0
0
0
0
0
0
0
0
0
0
0
0
0
0
0
0
0
0
0
0
0
0
0
0
0
0
0
0
0
0
0
0
0
0
0
0
0
0
0
0
0
0
0
0
0
0
0
0
0
0
0
0
0
0
0
0
0
0
0
0
0
0
0
0
0
0
0
0
0
0
0
0
0
0
0
0
0
0
0
0
0
0
0
0
0
0
0
0
0
0
0
0
0
0
0
0
0
0
0
0
0
0
0
0
0
0
0
0
0
0
0
0
0
0
0
0
0
0
0
0
0
0
0
0
0
0
0
0
0
0
0
0
0
0
0
0
0
0
0
0
0
0
0
0
0
0
0
0
0
0
0
0
0
0
0
0
0
0
0
0
0
0
0
0
0
0
0
0
0
0
0
0
0
0
0
0
0
0
0
0
0
0
0
0
0
0
0
0
0
0
0
0
0
0
0
0
0
0
0
0
0
0
0
0
0
0
0
0
0
0
0
0
0
0
0
0
0
0
0
0
0
0
0
0
0
0
0
0
0
0
0
0
0
0
0
0
0
0
0
0
0
0
0
0
0
0
0
0
0
0
0
0
0
0
0
0
0
0
0
0
0
0
0
0
0
0
0
0
0
0
0
0
0
0
0
0
0
0
0
0
0
0
0
0
0
0
0
0
0
0
0
0
0
0
0
0
0
0
0
0
0
0
0
0
0
0
0
0
0
0
0
0
0
0
0
0
0
0
0
0
0
0
0
0
0
0
0
0
0
0
0
0
0
0
0
0
0
0
0
0
0
0
0
0
0
0
0
0
0
0
0
0
0
0
0
0
0
0
0
0
0
0
0
0
0
0
0
0
0
0
0
0
0
0
0
0
0
0
0
0
0
0
0
0
0
0
0
0
0
0
0
0
0
0
0
0
0
0
0
0
0
0
0
0
0
0
0
0
0
0
0
0
0
0
0
0
0
0
0
0
0
0
0
0
0
0
0
0
0
0
0
0
0
0
0
0
0
0
0
0
0
0
0
0
0
0
0
0
0
0
0
0
0
0
0
0
0
0
0
0
0
0
0
0
0
0
0
0
0
0
0
0
0
0
0
0
0
0
0
0
0
0
0
0
0
0
0
0
0
0
0
0
0
0
0
0
0
0
0
0
0
0
0
0
0
0
0
0
0
0
0
0
0
0
0
0
0
0
0
0
0
0
0
0
0
0
0
0
0
0
0
0
0
0
0
0
0
0
0
0
0
0
0
0
0
0
0
0
0
0
0
0
0
0
0
0
0
0
0
0
0
0
0
0
0
0
0
0
0
0
0
0
0
0
0
0
0
0
0
0
0
0
0
0
0
0
0
0
0
0
0
0
0
0
0
0
0
0
0
0
0
0
0
0
0
0
0
0
0
0
0
0
0
0
0
0
0
0
0
0
0
0
0
0
0
0
0
0
0
0
0
0
0
0
0
0
0
0
0
0
0
0
0
0
0
0
0
0
0
0
0
0
0
0
0

POINT_DATA	1200
SCALARS model double 1
LOOKUP_TABLE table0
0.167155
3.16839
-9.71152
-6.49143
-13.2908
0.418567
2.79218
-16.6151
-11.1259
-15.8534
0.820501
-12.2584
-24.6913
-11.5171
-14.688
-1.30248
-16.9201
-17.1629
-0.235223
-7.24666
-4.3902
-22.4156
-9.51441
-19.2946
-5.69305
-7.64105
10.6151
-3.09484
16.2214
0.319675
13.7134
0.438693
-4.37341
-19.6257
-6.78335
-20.629
-10.2967
-3.91392
14.664
-7.77845
7.39245
-0.814544
12.529
-0.424794
-1.79731
-14.2784
-17.7986
-2.40279
-9.17616
-0.297498
-8.79503
-26.918
-13.0545
-16.2943
0.0573269
-0.263731
-19.547
-9.9046
-15.0509
-0.215645
5.31667
-12.7555
-4.9299
-11.6634
0.336121
0.952169
-10.8228
-4.75737
-8.81383
-0.0781892
-1.45026
-14.065
-4.71987
-7.43215
-0.423014
-5.2078
-7.18093
7.45834
2.12048
-1.61782
-15.1302
9.7293
4.84475
31.515
7.30043
37.4768
38.1986
69.8389
31.4081
38.7354
20.8127
-10.767
33.9257
-7.09394
42.8441
0.325014
69.939
5.07097
84.2358
24.1782
50.6353
36.2934
62.4783
75.0117
105.084
98.6635
127.441
82.1658
70.0894
37.2818
-7.78376
38.6101
-5.86745
26.9637
5.91292
79.9692
3.14544
58.8005
35.0419
60.8412
23.0747
47.3644
97.6474
125.919
73.7339
101.596
82.0255
69.4359
36.87
-1.86527
7.40156
29.3509
-5.64397
11.3458
39.3003
66.2234
11.7348
34.3007
33.4029
38.0154
20.1393
-2.04062
-2.14744
-8.80224
8.16784
2.22439
-0.988097
2.69089
-14.8266
-1.72248
-5.41583
-0.650746
3.63715
-12.2284
-0.540931
-4.88771
0.0807125
1.86141
-8.60992
-0.552321
-3.05072
-0.151425
-8.52863
-10.0372
3.8822
2.24708
-3.73346
-19.4519
9.75705
-7.54333
25.0889
-20.1899
9.96049
-6.92253
27.481
10.5518
28.5948
19.8207
-9.32145
31.9022
-0.158865
66.7467
-8.44523
37.9922
3.0668
78.9661
22.4074
57.3486
72.7299
107.034
30.8372
68.2381
94.4782
129.672
62.6767
10.4418
110.252
54.4815
78.5472
33.301
129.345
80.0859
80.2953
49.0628
11.7457
107.396
20.1104
133.678
19.3262
131.313
29.3454
165.018
128.908
159.558
165.671
193.131
164.354
193.787
210.149
234.799
152.525
86.8225
181.473
108.99
179.552
120.661
211.462
145.499
129.646
73.7255
21.0656
130.681
14.163
99.1953
30.6355
163.31
22.8409
126.66
165.439
192.087
128.997
156.771
210.784
234.413
166.432
192.457
180.557
110.264
150.431
92.3398
211.206
147.343
179.016
127.225
129.625
73.7744
3.9044
55.0925
-4.77804
15.0507
9.3225
71.4204
-1.75798
25.0638
74.3086
103.503
25.9465
53.7417
98.2797
127.549
36.7792
65.8116
107.06
66.635
60.9315
36.2607
128.731
93.9187
77.8719
58.3143
80.9373
49.5348
-5.26468
-0.580868
21.7961
-7.03189
6.64086
2.89384
25.4072
-5.91958
7.54479
2.19973
30.4753
21.1402
-1.43679
-1.23525
-13.1836
6.31798
4.42471
-0.102452
-0.392066
-13.2262
3.3905
1.87767
-0.0556281
-0.916567
-5.47705
2.33952
-0.487844
-0.201241
-9.36274
-5.65514
7.67412
5.51954
-3.24672
-20.5371
8.05449
-7.75339
25.2904
-17.8257
5.89571
-8.70206
19.3594
16.199
32.3697
22.9495
-7.16603
36.002
4.85828
77.2221
-7.33133
25.4235
3.29003
59.3238
30.1554
66.559
95.2468
128.956
21.3202
53.0611
75.0592
104.92
78.146
41.3428
128.37
87.8895
63.202
36.5682
106.185
77.0198
82.1212
50.6545
20.7473
130.022
30.1519
163.606
15.8968
102.287
23.3177
129.795
166.608
193.953
213.255
235.436
134.529
159.171
173.631
193.8
178.629
129.046
210.215
153.911
148.623
112.214
175.22
133.427
129.297
73.7615
31.3666
162.498
23.8054
126.287
24.1178
128.689
17.5893
98.0465
214.12
235.304
168.926
193.224
174.27
193.64
136.072
158.379
210.341
155.877
179.038
135.709
175.474
135.175
149.383
118.031
129.67
74.0834
9.81287
70.1206
-1.49282
23.9176
5.09029
50.519
-4.331
12.5223
98.9384
127.401
35.8537
64.3259
77.111
103.308
24.7199
50.6732
129.277
101.521
79.5808
65.3096
107.758
88.7688
66.4038
57.6463
83.3373
51.6853
-4.36313
1.71698
22.72
-6.84259
4.62496
-3.09187
15.0555
-9.03906
0.577464
6.67034
34.0166
24.5743
-1.11783
-4.75361
-10.2094
8.47571
7.19508
0.00707701
-2.8137
-10.6961
4.44312
3.76235
0.00893684
-0.518838
-2.14407
2.1481
-2.34499
-0.131617
-1.80431
-1.80027
4.5595
0.675147
-1.28527
-12.4491
4.06605
-8.67018
11.2974
-4.7072
1.44005
-4.78791
3.03428
6.16199
14.7632
8.35881
-6.89874
12.9137
-0.863487
32.2488
-3.28583
4.74586
-2.99954
10.337
9.02836
32.1999
43.1028
65.3369
0.54499
9.53106
11.8646
20.4498
41.9696
27.0996
68.6996
51.9643
11.3408
6.2362
21.9409
16.587
35.2963
20.0286
6.17019
58.6104
10.4356
75.5194
-0.710547
18.4605
0.562569
23.6816
81.3699
100.376
106.656
122.857
24.7679
32.2267
33.2835
39.9754
96.3222
75.0265
113.842
89.1995
31.7998
24.9817
38.0685
30.0931
54.7968
29.749
10.7563
74.7451
7.29487
55.4209
1.22752
23.2746
0.0475918
16.3149
107.223
122.784
82.6064
100.009
33.6346
40.1399
25.6103
32.6093
114.135
90.4718
97.1576
79.1245
38.4355
30.7534
32.8868
27.065
55.3812
30.1665
0.148395
25.579
-3.71417
4.31553
-2.35513
6.82292
-1.86561
1.30302
45.2116
64.8133
14.6447
32.4491
13.5608
21.0346
4.19813
10.2622
70.0559
59.6776
43.0624
38.8506
23.8899
20.5402
14.9741
13.5659
36.4196
21.1663
-1.30787
-6.23783
2.84238
15.7541