# vtk DataFile Version 3.0
Gravity inversion using rectangular prisms
ASCII
DATASET UNSTRUCTURED_GRID

POINTS	2628	double
100	100	100
100	100	300
100	100	500
100	100	700
100	100	900
100	300	100
100	300	300
100	300	500
100	300	700
100	300	900
100	500	100
100	500	300
100	500	500
100	500	700
100	500	900
100	700	100
100	700	300
100	700	500
100	700	700
100	700	900
100	900	100
100	900	300
100	900	500
100	900	700
100	900	900
100	1100	100
100	1100	300
100	1100	500
100	1100	700
100	1100	900
100	1300	100
100	1300	300
100	1300	500
100	1300	700
100	1300	900
100	1500	100
100	1500	300
100	1500	500
100	1500	700
100	1500	900
100	1700	100
100	1700	300
100	1700	500
100	1700	700
100	1700	900
100	1900	100
100	1900	300
100	1900	500
100	1900	700
100	1900	900
300	100	100
300	100	300
300	100	500
300	100	700
300	100	900
300	300	100
300	300	300
300	300	500
300	300	700
300	300	900
300	500	100
300	500	300
300	500	500
300	500	700
300	500	900
300	700	100
300	700	300
300	700	500
300	700	700
300	700	900
300	900	100
250	850	250
250	850	350
250	950	250
250	950	350
350	850	250
350	850	350
350	950	250
350	950	350
300	900	500
300	900	700
300	900	900
300	1100	100
300	1100	300
300	1100	500
300	1100	700
300	1100	900
300	1300	100
300	1300	300
300	1300	500
300	1300	700
300	1300	900
300	1500	100
300	1500	300
300	1500	500
300	1500	700
300	1500	900
300	1700	100
300	1700	300
300	1700	500
300	1700	700
300	1700	900
300	1900	100
300	1900	300
300	1900	500
300	1900	700
300	1900	900
500	100	100
500	100	300
500	100	500
500	100	700
500	100	900
500	300	100
500	300	300
500	300	500
500	300	700
500	300	900
500	500	100
450	450	250
450	450	350
450	550	250
450	550	350
550	450	250
550	450	350
550	550	250
550	550	350
500	500	500
500	500	700
500	500	900
450	650	50
450	650	150
450	750	50
450	750	150
550	650	50
550	650	150
550	750	50
550	750	150
450	650	250
450	650	350
450	750	250
450	750	350
525	625	225
525	625	275
525	675	225
525	675	275
575	625	225
575	625	275
575	675	225
575	675	275
525	625	325
525	625	375
525	675	325
525	675	375
575	625	325
575	625	375
575	675	325
575	675	375
525	725	225
525	725	275
525	775	225
525	775	275
575	725	225
575	725	275
575	775	225
575	775	275
525	725	325
525	725	375
525	775	325
525	775	375
575	725	325
575	725	375
575	775	325
575	775	375
450	650	450
450	650	550
450	750	450
450	750	550
550	650	450
550	650	550
550	750	450
550	750	550
500	700	700
500	700	900
450	850	50
450	850	150
450	950	50
450	950	150
550	850	50
550	850	150
550	950	50
550	950	150
450	850	250
450	850	350
425	925	225
425	925	275
425	975	225
425	975	275
475	925	225
475	925	275
475	975	225
475	975	275
450	950	350
550	850	250
550	850	350
550	950	250
550	950	350
450	850	450
450	850	550
450	950	450
450	950	550
550	850	450
550	850	550
550	950	450
550	950	550
500	900	700
500	900	900
500	1100	100
450	1050	250
450	1050	350
450	1150	250
450	1150	350
550	1050	250
550	1050	350
550	1150	250
550	1150	350
500	1100	500
500	1100	700
500	1100	900
500	1300	100
500	1300	300
500	1300	500
500	1300	700
500	1300	900
500	1500	100
500	1500	300
500	1500	500
500	1500	700
500	1500	900
500	1700	100
500	1700	300
500	1700	500
500	1700	700
500	1700	900
500	1900	100
500	1900	300
500	1900	500
500	1900	700
500	1900	900
700	100	100
700	100	300
700	100	500
700	100	700
700	100	900
700	300	100
650	250	250
650	250	350
650	350	250
650	350	350
750	250	250
750	250	350
750	350	250
750	350	350
700	300	500
700	300	700
700	300	900
650	450	50
650	450	150
650	550	50
650	550	150
750	450	50
750	450	150
750	550	50
750	550	150
650	450	250
650	450	350
625	525	225
625	525	275
625	575	225
625	575	275
675	525	225
675	525	275
675	575	225
675	575	275
625	525	325
625	525	375
625	575	325
625	575	375
675	525	325
675	525	375
675	575	325
675	575	375
750	450	250
750	450	350
725	525	225
725	525	275
725	575	225
725	575	275
775	525	225
775	525	275
775	575	225
775	575	275
725	525	325
725	525	375
725	575	325
725	575	375
775	525	325
775	525	375
775	575	325
775	575	375
650	450	450
650	450	550
650	550	450
650	550	550
750	450	450
750	450	550
750	550	450
750	550	550
700	500	700
700	500	900
650	650	50
625	625	125
625	625	175
625	675	125
625	675	175
675	625	125
675	625	175
675	675	125
675	675	175
650	750	50
625	725	125
625	725	175
625	775	125
625	775	175
675	725	125
675	725	175
675	775	125
675	775	175
750	650	50
725	625	125
725	625	175
725	675	125
725	675	175
775	625	125
775	625	175
775	675	125
775	675	175
750	750	50
725	725	125
725	725	175
725	775	125
725	775	175
775	725	125
775	725	175
775	775	125
775	775	175
612.5	612.5	212.5
612.5	612.5	237.5
612.5	637.5	212.5
612.5	637.5	237.5
637.5	612.5	212.5
637.5	612.5	237.5
637.5	637.5	212.5
637.5	637.5	237.5
612.5	612.5	262.5
612.5	612.5	287.5
612.5	637.5	262.5
612.5	637.5	287.5
637.5	612.5	262.5
637.5	612.5	287.5
637.5	637.5	262.5
637.5	637.5	287.5
612.5	662.5	212.5
612.5	662.5	237.5
612.5	687.5	212.5
612.5	687.5	237.5
637.5	662.5	212.5
637.5	662.5	237.5
637.5	687.5	212.5
637.5	687.5	237.5
625	675	275
675	625	225
675	625	275
675	675	225
675	675	275
612.5	612.5	312.5
612.5	612.5	337.5
612.5	637.5	312.5
612.5	637.5	337.5
637.5	612.5	312.5
637.5	612.5	337.5
637.5	637.5	312.5
637.5	637.5	337.5
612.5	612.5	362.5
612.5	612.5	387.5
612.5	637.5	362.5
612.5	637.5	387.5
637.5	612.5	362.5
637.5	612.5	387.5
637.5	637.5	362.5
637.5	637.5	387.5
625	675	325
612.5	662.5	362.5
612.5	662.5	387.5
612.5	687.5	362.5
612.5	687.5	387.5
637.5	662.5	362.5
637.5	662.5	387.5
637.5	687.5	362.5
637.5	687.5	387.5
675	625	325
662.5	612.5	362.5
662.5	612.5	387.5
662.5	637.5	362.5
662.5	637.5	387.5
687.5	612.5	362.5
687.5	612.5	387.5
687.5	637.5	362.5
687.5	637.5	387.5
675	675	325
675	675	375
612.5	712.5	212.5
612.5	712.5	237.5
612.5	737.5	212.5
612.5	737.5	237.5
637.5	712.5	212.5
637.5	712.5	237.5
637.5	737.5	212.5
637.5	737.5	237.5
625	725	275
612.5	762.5	212.5
612.5	762.5	237.5
612.5	787.5	212.5
612.5	787.5	237.5
637.5	762.5	212.5
637.5	762.5	237.5
637.5	787.5	212.5
637.5	787.5	237.5
612.5	762.5	262.5
612.5	762.5	287.5
612.5	787.5	262.5
612.5	787.5	287.5
637.5	762.5	262.5
637.5	762.5	287.5
637.5	787.5	262.5
637.5	787.5	287.5
675	725	225
675	725	275
675	775	225
675	775	275
625	725	325
612.5	712.5	362.5
612.5	712.5	387.5
612.5	737.5	362.5
612.5	737.5	387.5
637.5	712.5	362.5
637.5	712.5	387.5
637.5	737.5	362.5
637.5	737.5	387.5
612.5	762.5	312.5
612.5	762.5	337.5
612.5	787.5	312.5
612.5	787.5	337.5
637.5	762.5	312.5
637.5	762.5	337.5
637.5	787.5	312.5
637.5	787.5	337.5
612.5	762.5	362.5
612.5	762.5	387.5
612.5	787.5	362.5
612.5	787.5	387.5
637.5	762.5	362.5
637.5	762.5	387.5
637.5	787.5	362.5
637.5	787.5	387.5
675	725	325
675	725	375
675	775	325
662.5	762.5	362.5
662.5	762.5	387.5
662.5	787.5	362.5
662.5	787.5	387.5
687.5	762.5	362.5
687.5	762.5	387.5
687.5	787.5	362.5
687.5	787.5	387.5
725	625	225
725	625	275
725	675	225
725	675	275
762.5	612.5	212.5
762.5	612.5	237.5
762.5	637.5	212.5
762.5	637.5	237.5
787.5	612.5	212.5
787.5	612.5	237.5
787.5	637.5	212.5
787.5	637.5	237.5
775	625	275
775	675	225
775	675	275
725	625	325
712.5	612.5	362.5
712.5	612.5	387.5
712.5	637.5	362.5
712.5	637.5	387.5
737.5	612.5	362.5
737.5	612.5	387.5
737.5	637.5	362.5
737.5	637.5	387.5
725	675	325
725	675	375
775	625	325
762.5	612.5	362.5
762.5	612.5	387.5
762.5	637.5	362.5
762.5	637.5	387.5
787.5	612.5	362.5
787.5	612.5	387.5
787.5	637.5	362.5
787.5	637.5	387.5
775	675	325
762.5	662.5	362.5
762.5	662.5	387.5
762.5	687.5	362.5
762.5	687.5	387.5
787.5	662.5	362.5
787.5	662.5	387.5
787.5	687.5	362.5
787.5	687.5	387.5
725	725	225
725	725	275
725	775	225
725	775	275
775	725	225
775	725	275
762.5	762.5	212.5
762.5	762.5	237.5
762.5	787.5	212.5
762.5	787.5	237.5
787.5	762.5	212.5
787.5	762.5	237.5
787.5	787.5	212.5
787.5	787.5	237.5
775	775	275
725	725	325
725	725	375
725	775	325
712.5	762.5	362.5
712.5	762.5	387.5
712.5	787.5	362.5
712.5	787.5	387.5
737.5	762.5	362.5
737.5	762.5	387.5
737.5	787.5	362.5
737.5	787.5	387.5
775	725	325
762.5	712.5	362.5
762.5	712.5	387.5
762.5	737.5	362.5
762.5	737.5	387.5
787.5	712.5	362.5
787.5	712.5	387.5
787.5	737.5	362.5
787.5	737.5	387.5
775	775	325
762.5	762.5	362.5
762.5	762.5	387.5
762.5	787.5	362.5
762.5	787.5	387.5
787.5	762.5	362.5
787.5	762.5	387.5
787.5	787.5	362.5
787.5	787.5	387.5
625	625	425
625	625	475
625	675	425
625	675	475
675	625	425
675	625	475
675	675	425
675	675	475
650	650	550
625	725	425
625	725	475
625	775	425
625	775	475
675	725	425
675	725	475
675	775	425
675	775	475
650	750	550
725	625	425
725	625	475
725	675	425
725	675	475
775	625	425
775	625	475
775	675	425
775	675	475
750	650	550
725	725	425
725	725	475
725	775	425
725	775	475
775	725	425
775	725	475
775	775	425
775	775	475
750	750	550
700	700	700
700	700	900
650	850	50
625	825	125
625	825	175
625	875	125
625	875	175
675	825	125
675	825	175
675	875	125
675	875	175
650	950	50
650	950	150
750	850	50
725	825	125
725	825	175
725	875	125
725	875	175
775	825	125
775	825	175
775	875	125
775	875	175
750	950	50
750	950	150
625	825	225
625	825	275
625	875	225
625	875	275
675	825	225
675	825	275
675	875	225
675	875	275
625	825	325
625	825	375
625	875	325
625	875	375
675	825	325
675	825	375
675	875	325
675	875	375
650	950	250
650	950	350
725	825	225
725	825	275
725	875	225
725	875	275
775	825	225
775	825	275
775	875	225
775	875	275
725	825	325
725	825	375
725	875	325
725	875	375
775	825	325
775	825	375
775	875	325
775	875	375
750	950	250
750	950	350
650	850	450
650	850	550
650	950	450
650	950	550
750	850	450
750	850	550
750	950	450
750	950	550
700	900	700
700	900	900
700	1100	100
650	1050	250
650	1050	350
650	1150	250
650	1150	350
750	1050	250
750	1050	350
750	1150	250
750	1150	350
700	1100	500
700	1100	700
700	1100	900
700	1300	100
650	1250	250
650	1250	350
650	1350	250
650	1350	350
750	1250	250
750	1250	350
750	1350	250
750	1350	350
700	1300	500
700	1300	700
700	1300	900
650	1450	50
650	1450	150
650	1550	50
650	1550	150
750	1450	50
750	1450	150
750	1550	50
750	1550	150
650	1450	250
650	1450	350
650	1550	250
650	1550	350
725	1425	225
725	1425	275
725	1475	225
725	1475	275
775	1425	225
775	1425	275
775	1475	225
775	1475	275
725	1425	325
725	1425	375
725	1475	325
[...]
CELL_DATA	2628
SCALARS model double 1
LOOKUP_TABLE table0
0.587758
-1.95657
-0.172138
-0.486302
-0.781315
0.902878
-0.610339
-0.383403
-0.749752
-1.05946
0.520023
3.4234
-0.651478
-0.993198
-1.23894
1.11473
-5.93713
-1.29461
-1.33055
-1.61381
0.750465
-0.372916
-1.15641
-1.50741
-1.90101
0.288573
0.0979839
-1.26447
-1.57173
-2.02765
0.309216
0.155296
-1.43162
-1.67158
-2.12587
0.446018
-1.54191
-1.5754
-1.82097
-2.12934
0.09706
1.42307
-0.751769
-1.4341
-1.77131
-0.0929725
1.56967
-0.568529
-1.35804
-1.73554
0.921047
1.313
-0.201593
-0.442433
-0.784842
1.81986
-9.30319
-0.504225
-0.789477
-1.13478
1.96889
-0.149418
-0.726449
-1.0313
-1.27277
1.6742
6.53401
-1.23556
-1.29294
-1.47123
0.123165
-0.0941945
-0.488303
-0.0904176
-0.392308
-0.356972
-0.538297
-0.338546
-0.502124
-0.974419
-1.4148
-1.80642
-0.295534
0.185525
-1.07828
-1.47537
-1.95618
0.452922
0.73176
-1.35686
-1.64128
-2.0304
0.232058
-1.43317
-1.57822
-1.74746
-2.00869
0.264132
-1.01237
-1.16169
-1.47458
-1.83407
0.041763
-0.087015
-0.961579
-1.39629
-1.78818
1.32533
-7.55896
-3.58161
-0.51603
-0.857789
3.35034
-3.07613
-5.11617
8.9738
11.516
10.1144
24.7931
28.125
24.8255
28.1054
25.1109
28.1813
25.1361
28.1694
31.6728
8.89941
11.4058
12.9051
18.5397
8.40898
18.4641
31.6901
22.3027
31.6564
22.2224
45.2226
43.4723
45.2351
43.4801
44.9067
44.9415
44.8843
44.9288
44.927
44.9586
44.9077
44.9483
43.2409
43.2983
43.2371
43.2975
43.2564
43.3104
43.2526
43.3088
44.8554
44.9125
44.8365
44.9033
44.8791
44.9335
44.8625
44.9264
43.2317
43.2949
43.2314
43.2963
43.2489
43.3084
43.2487
43.3093
27.5612
33.0407
27.7182
33.473
27.7427
32.8218
27.6786
32.5955
8.8033
11.3289
4.32389
12.8615
3.89866
8.97968
21.7055
12.0583
7.27483
12.1122
58.5496
59.3336
58.0578
58.1158
58.0585
58.1179
58.064
58.1164
58.0646
58.1183
59.3446
58.527
59.3289
58.4839
59.3344
27.9381
31.8213
28.0017
31.5942
27.954
32.3002
28.052
32.2048
6.97307
9.0439
1.54293
-11.2257
-16.2663
-11.2437
-16.2818
-11.2025
-16.2821
-11.2504
-16.3228
8.64621
6.77589
8.77824
0.116271
-1.16743
-1.71273
6.6416
8.54917
0.178786
-1.16022
-1.86055
-1.62631
-1.94545
0.154262
-0.668301
-0.995259
-1.43795
-1.87186
0.0390695
0.295875
-0.926666
-1.3941
-1.83961
0.363576
-3.65164
15.1281
4.60068
5.86101
3.98143
-6.57139
1.93888
-6.4901
1.98841
-7.40527
1.91107
-7.18101
1.9712
1.88646
9.00051
11.5908
14.8715
35.3755
52.1652
36.7267
16.9538
35.287
52.1379
36.6415
73.9109
74.9979
78.2409
77.5601
78.2362
77.5505
78.2294
77.5653
78.2259
77.5564
74.5285
74.5249
74.5018
74.4967
74.5255
74.5249
74.5004
74.4978
73.8557
74.9989
78.2105
77.5796
78.2078
77.572
78.1964
77.612
78.1938
77.6068
74.5121
74.5156
74.4953
74.4962
74.5054
74.5115
74.491
74.4938
28.5874
34.6265
28.5531
34.2999
28.5213
34.6015
28.6375
34.5696
8.94334
11.4826
45.8983
90.8057
90.4091
90.812
90.3258
90.7805
90.432
90.8035
90.3652
62.8988
90.8212
90.26
90.8316
90.2128
90.8286
90.2833
90.8633
90.2417
72.4537
90.8627
91.0191
90.8958
90.9859
90.844
93.2765
90.8744
93.2467
63.6386
90.8294
90.3142
90.8542
90.2584
90.8421
90.3075
90.875
90.2622
220.763
220.763
220.758
220.76
220.761
220.763
220.757
220.76
220.762
220.764
220.759
220.765
220.76
220.765
220.757
220.766
220.752
220.755
220.747
220.751
220.751
220.756
220.746
220.752
220.88
221.223
220.751
221.218
220.785
218.141
218.144
218.138
218.146
218.139
218.147
218.135
218.149
218.052
218.054
218.051
218.053
218.059
218.061
218.055
218.06
218.278
218.046
218.052
218.044
218.05
218.045
218.056
218.041
218.053
218.198
218.068
218.073
218.065
218.075
218.092
218.097
218.088
218.1
218.221
218.314
220.744
220.749
220.743
220.747
220.743
220.749
220.742
220.748
220.961
220.743
220.746
220.743
220.746
220.742
220.747
220.742
220.747
220.68
220.685
220.727
220.739
220.679
220.687
220.726
220.74
221.188
220.779
221.156
220.731
218.309
218.043
218.049
218.042
218.047
218.039
218.052
218.039
218.051
218.066
218.07
218.107
218.114
218.064
218.073
218.104
218.116
218.044
218.047
218.045
218.047
218.041
218.046
218.049
218.051
218.222
218.31
218.189
218.04
218.043
218.05
218.055
218.057
218.06
218.07
218.076
221.29
220.734
221.215
220.74
220.649
220.665
220.648
220.665
220.689
220.723
220.688
220.723
220.726
221.206
220.726
218.187
218.111
218.118
218.107
218.121
218.134
218.141
218.13
218.142
218.188
218.34
218.181
218.144
218.15
218.135
218.142
218.152
218.157
218.148
218.154
218.177
218.114
218.119
218.105
218.111
218.137
218.144
218.133
218.14
221.176
220.734
221.187
220.718
221.217
220.722
220.536
220.553
220.558
220.59
220.56
220.592
220.582
220.629
220.714
218.187
218.335
218.175
218.08
218.085
218.091
218.098
218.11
218.115
218.117
218.123
218.173
218.113
218.118
218.119
218.124
218.134
218.141
218.135
218.141
218.168
218.124
218.13
218.133
218.139
218.14
218.146
218.142
218.148
27.5116
28.9735
27.4825
29.667
27.5243
29.2162
27.4856
29.6999
31.8072
27.5061
30.016
27.491
30.0964
27.5023
30.0354
27.4877
30.0953
31.2925
27.4975
29.634
27.477
29.95
27.4998
29.8686
27.4807
30.0241
30.8966
27.4845
30.1874
27.4568
30.2043
27.4795
30.1525
27.4317
30.152
30.4866
8.85094
11.3838
42.1908
4.97016
6.87711
4.9357
7.16951
4.97563
6.91606
4.92573
7.2027
21.5109
6.00075
49.4874
4.9767
6.95565
4.90597
7.24302
4.9712
6.97452
4.88762
7.25971
27.5975
5.97386
82.0345
83.4689
82.0355
83.449
82.0436
83.4689
82.0425
83.4546
80.2119
81.5583
80.2212
81.5598
80.2064
81.5569
80.2175
81.5583
75.8236
86.4046
82.0546
83.4756
82.05
83.4489
82.0586
83.4768
82.0512
83.4534
80.2011
81.5544
80.2171
81.5558
80.1977
81.5523
80.2145
81.5536
75.7821
86.389
28.169
33.3034
28.6084
33.4289
28.2039
34.0659
28.8755
33.9329
6.98646
9.01138
3.01143
11.9537
16.6868
11.8995
16.6431
11.9619
16.6899
11.9295
16.6773
23.812
6.7836
8.71387
2.1364
-0.313764
-0.438158
-0.272273
-0.400132
-0.268634
-0.362082
-0.243958
-0.337472
24.4926
6.70809
8.59986
0.925509
2.62397
-3.43129
-8.4152
1.39225
2.74005
-0.315219
-1.88751
25.7331
26.0163
25.6368
25.9926
25.5299
25.5287
25.5043
25.5114
25.5354
25.5371
25.5089
25.5205
25.4712
26.3763
25.4585
26.368
25.4737
26.3817
25.4625
26.3746
25.4642
25.4782
25.4369
25.4587
25.469
25.4863
25.4408
25.4676
25.4413
26.3548
25.4265
26.3441
25.4454
26.362
25.4321
26.3525
15.1594
15.255
15.1418
15.2435
15.1798
15.2725
15.1629
15.2606
6.69495
8.60416
0.29175
0.598241
1.02758
0.460559
0.699745
0.618167
1.07227
0.481642
0.737557
-0.722033
-1.32662
-1.81932
0.198306
1.51338
-0.839682
-1.33383
-1.81146
0.275457
-9.5425
-14.2955
-12.9626
-17.9584
-9.65
-14.3393
-13.0534
-17.9244
15.0682
4.69744
6.02313
0.186968
-9.36026
0.191404
-1.71631
0.129318
-7.92811
0.152465
-1.82474
34.9899
49.1251
56.4566
60.2855
35.201
49.2585
56.3929
60.2177
5.42883
6.79677
5.43777
6.79813
5.44145
6.81836
5.44393
6.8166
8.94523
11.5553
15.3439
24.1482
41.0889
26.8357
2.96904
23.9251
18.4876
26.9399
63.7161
60.2837
71.0779
60.2807
70.4825
70.4011
70.5007
70.4003
70.478
70.3993
70.5088
70.3958
59.9236
59.9047
59.9278
59.9272
59.9108
59.8982
59.918
59.9214
70.5004
70.27
70.5243
70.2743
70.5433
70.311
70.5786
70.3129
59.9628
59.9667
59.9872
59.9925
59.9588
59.9669
59.9868
59.994
29.0707
34.5198
28.9504
34.375
29.2546
33.9484
29.2776
34.0316
8.89581
11.4664
46.8292
80.1015
69.3769
80.1214
15.4964
77.8886
76.8128
77.9081
76.895
77.7382
76.4967
77.7645
76.5063
15.6772
77.9044
76.8507
77.8896
76.9034
77.8693
76.5319
77.9079
76.5695
95.767
95.7916
95.7723
95.7864
95.7802
95.7917
95.7846
95.7857
89.2813
89.2974
89.273
89.2893
89.3436
89.4106
89.3354
89.4026
95.7738
95.7775
95.768
95.769
95.7848
95.7758
95.7766
95.7664
89.2629
89.2795
89.2556
89.2726
89.3248
89.3927
89.3172
89.3854
96.6999
95.7913
96.6988
95.7836
96.9921
95.7898
96.9485
95.7802
89.4826
89.5465
89.4737
89.5383
89.5452
89.6608
89.5353
89.652
96.6912
95.7719
96.6797
95.7616
96.893
95.7665
96.8472
95.7556
89.461
89.527
89.4523
89.5189
89.5208
89.6399
89.5114
89.631
28.3781
34.2059
28.392
34.1503
29.3162
34.2915
29.0723
34.3447
8.8249
11.3917
35.9322
18.4477
16.9004
18.9756
16.8908
18.6131
5.37931
19.2876
71.8117
67.0703
71.9068
67.0533
71.8563
67.0594
71.1633
71.2544
71.0801
71.1927
71.1275
71.226
71.0406
71.1636
67.0473
28.5284
34.2063
30.4421
34.1528
28.2617
33.0795
31.4212
31.5937
7.01432
9.10694
4.55273
11.9309
16.7114
11.9245
16.7612
11.891
16.6713
11.8959
16.7466
23.8327
6.90735
8.90904
11.8654
27.4265
22.4852
27.1025
27.7818
27.4051
54.4467
27.0535
94.9317
94.8863
94.9404
94.9827
94.9234
94.9852
94.9296
95.0645
94.8501
94.8512
94.8586
94.857
94.85
95.0326
94.8583
95.051
94.9544
95.1392
94.9625
95.0646
94.948
95.3613
94.9556
95.6216
94.8689
94.8637
94.8753
94.8679
94.8682
95.0715
94.8745
95.0888
94.9052
95.0396
94.9051
95.0885
94.8903
95.0692
94.889
95.1154
94.563
89.7992
94.5627
26.4395
28.9891
24.1731
29.4014
26.4642
28.9846
24.1708
29.4155
6.86172
8.81684
16.8836
42.5482
42.881
42.5725
42.868
42.5366
44.7943
42.565
44.7898
3.09801
42.6242
42.851
42.649
42.8399
42.6251
44.7866
42.6573
44.7861
64.9959
38.157
27.1562
38.2553
134.904
134.83
134.899
134.758
134.854
134.824
134.856
134.789
134.598
134.561
134.541
134.516
134.588
134.621
134.558
134.565
134.798
134.661
134.782
134.595
134.8
134.7
134.793
134.661
134.478
134.458
134.42
134.408
134.509
134.517
134.477
134.459
134.766
134.964
134.794
134.926
134.729
134.956
134.761
134.965
134.636
134.676
134.617
134.631
134.627
134.737
134.633
134.678
134.842
134.788
134.876
134.754
134.836
134.821
134.875
134.825
134.557
134.568
134.54
134.521
134.585
134.626
134.594
134.569
24.5639
25.1333
24.3137
25.1404
24.5692
25.1362
24.3202
25.1422
29.3273
23.1731
25.8589
23.102
25.9214
23.1791
25.8645
23.1078
25.9269
29.7585
24.5755
25.1414
24.3274
25.146
24.5813
25.1443
24.3341
25.148
29.3413
23.186
25.8712
23.1145
25.9334
23.1923
25.8771
23.1205
25.9393
29.7768
6.81202
8.70451
2.97249
1.55451
2.95231
1.59482
4.76046
1.7392
3.28402
1.68509
0.966552
1.14516
0.963198
1.14613
0.984506
1.1635
0.978736
1.16301
1.36719
1.57393
1.35959
1.5737
1.37723
1.58116
1.37111
1.582
1.04381
1.47179
1.00665
1.18702
0.999943
1.18514
1.02076
1.20178
1.01182
1.19802
1.39088
1.59248
1.3881
1.59792
1.39968
1.59875
1.39803
1.60552
1.08216
1.49176
2.47503
4.0532
3.21358
4.1434
2.67556
4.70165
3.4693
4.54614
5.90024
7.53986
0.992202
-2.53838
3.98284
5.89391
7.49357
0.271871
-3.21227
-1.79915
4.10178
5.39321
0.174823
-35.6456
-8.43747
0.0757642
0.0707142
2.09856
-8.49775
-0.0996547
0.13061
-17.0093
-0.737027
-0.818122
0.906001
0.0501638
2.56674
0.503937
-1.57541
-1.73205
-14.3296
-1.52192
-2.50747
-1.53212
-2.51505
-1.55299
-2.50541
-1.57023
-2.51641
-50.783
-54.2334
-50.7755
-54.2283
-50.8037
-54.2264
-50.7945
-54.2219
-64.0483
-64.0701
-64.054
-64.0815
-64.0269
-64.0724
-64.0351
-64.0836
-59.548
-54.2177
-59.5365
-54.2106
-59.552
-54.2137
-59.5412
-54.2089
-64.056
-64.0963
-64.0565
-64.1073
-64.041
-64.0981
-64.0456
-64.1089
-56.545
-68.933
-79.0791
-79.1235
-79.069
-79.118
-79.0823
-79.1273
-79.0723
-79.1217
-68.8732
-16.9353
-20.7098
-16.9611
-20.7579
-16.9535
-20.7244
-16.9752
-20.7691
-1.68546
-2.12499
-2.49289
-10.4735
-5.33881
12.5082
-23.475
-52.1194
-27.9967
-32.6051
-11.2002
-13.3085
-11.2074
-13.5206
-11.2055
-13.3135
-11.2134
-13.5293
-15.6437
-18.192
-15.5551
-18.0821
-15.7184
-17.9797
-15.5845
-18.0038
-11.0187
-13.4533
-11.1135
-13.6774
-11.0259
-13.4675
-11.1173
-13.6643
-15.5915
-18.1326
-15.6355
-18.2137
-15.6159
-18.1066
-15.6794
-18.1772
-27.9445
-28.0327
-27.8213
-28.1624
-27.947
-28.0359
-27.8195
-28.1644
-16.1996
-17.7788
-15.9891
-17.9573
-16.525
-17.4823
-16.4199
-17.6518
-24.9424
-29.6096
-25.4247
-31.1649
-24.9296
-29.6109
-25.424
-31.1629
-15.7085
-18.0974
-15.7058
-18.1707
-15.9671
-17.95
-15.7385
-18.2064
0.769324
0.937625
0.85589
1.11531
0.759828
0.924884
0.85585
1.10863
0.758557
1.17269
-3.04554
-8.83031
-4.88792
-8.60771
-18.3512
-10.4273
-7.07951
-9.39082
-13.77
-16.9308
-12.9484
-13.3352
-12.9616
-13.2975
-12.9714
-13.293
-12.9844
-13.2583
-16.3282
-17.4108
-16.3383
-17.3508
-16.1638
-17.6466
-16.1617
-17.5967
-28.3329
-16.9065
-27.9654
-27.9848
-27.8914
-27.9073
-27.9581
-27.9786
-27.885
-27.901
-15.9119
-17.7359
-15.9359
-17.6553
-16.209
-17.625
-16.2003
-17.5379
1.03361
1.33073
1.13078
1.5523
1.04507
1.32734
1.14728
1.55249
0.697398
0.900599
1.18232
10.1502
8.18446
10.3547
1.2361
10.2669
8.2977
10.4344
64.3777
64.4529
64.3803
64.4575
64.3863
64.4604
64.3867
64.4636
66.8606
66.8998
66.8606
66.9059
66.8594
66.9046
66.8586
66.9104
63.7038
66.6827
64.4006
64.4741
64.3979
64.4763
64.4155
64.4881
64.4101
64.4895
66.6765
63.6868
66.6741
24.2662
24.354
24.2859
24.3739
24.2894
24.3693
24.3011
24.3861
7.05287
9.03017
44.7205
71.2858
74.7667
71.2825
44.803
71.3071
81.1263
71.3751
87.6222
86.3937
87.6747
86.3465
87.6963
86.4809
87.7287
86.2542
34.3764
41.4324
35.3671
41.076
38.3796
39.9756
37.5008
40.2783
7.09169
9.11289
65.0092
65.5488
33.9251
65.0739
82.2202
65.6775
51.2119
65.1018
86.549
86.0271
86.4048
85.4225
86.5744
86.1641
86.4385
85.5542
38.6905
38.7342
38.6824
38.6085
38.6739
39.3223
38.6681
39.3329
7.09697
9.08934
18.7943
8.68935
1.88465
8.75332
18.9351
8.63297
5.2211
8.64873
50.3711
50.7721
50.3599
50.7661
50.353
50.763
50.3375
50.7595
4.8036
5.41465
4.4487
5.35805
5.67929
7.07801
4.94654
5.76736
6.77838
8.59821
0.83438
-2.6437
5.03649
6.76554
8.57664
0.0946401
-3.53405
-1.53127
-1.77294
-2.28833
-1.53676
5.30681
-0.510307
-1.94262
-1.08898
-1.98017
-0.629829
-1.84141
11.8851
-2.3229
-0.992344
-1.18624
-0.978835
-1.20117
-1.03323
-1.25795
-1.02303
-1.26519
-1.68133
-2.09763
-2.02721
-2.34106
-1.99164
-2.67865
-2.35276
-2.90913
-3.54288
-5.05602
-3.33261
-4.11583
-3.37142
-4.18726
-3.33438
-4.15305
-3.37468
-4.22456
-4.65131
-5.38137
-4.79356
-5.61257
-4.77275
-5.62402
-4.89531
-5.75059
-7.28094
-7.97978
-7.16048
-7.92318
-7.30488
-8.02171
-7.31262
-7.96016
-1.33038
-1.6162
-6.94013
-37.676
-27.8535
-67.6653
-67.8387
-67.6747
-67.8353
-67.6534
-67.843
-67.6704
-67.8388
-16.5877
-49.2718
-42.666
-38.4068
-38.3714
-38.4144
-38.3659
-38.4053
-38.3876
-38.4141
-38.3807
-117.449
-117.529
-117.437
-117.524
-117.46
-117.546
-117.45
-117.542
-115.807
-115.895
-115.805
-115.9
-115.785
-115.827
-115.784
-115.831
-125.369
-116.308
-117.481
-117.573
-117.476
-117.571
-117.501
-117.593
-117.499
-117.594
-115.728
-115.758
-115.727
-115.763
-115.713
-115.694
-115.713
-115.698
-124.344
-124.328
-124.343
-124.326
-124.353
-124.369
-124.351
-124.369
-116.303
-44.4182
-44.3234
-44.4157
-44.329
-44.4349
-44.3561
-44.4345
-44.3596
-2.06646
-2.51339
-46.9943
-111.045
-113.445
-111.054
-113.576
-111.033
-113.402
-111.04
-113.558
-51.9349
-111.287
-111.568
-111.29
-111.494
-111.254
-111.553
-111.245
-111.477
-67.7524
-112.613
-51.9573
-111.119
-111.441
-111.12
-111.439
-111.086
-111.449
-111.093
-111.448
-146.365
-147.46
-146.148
-147.464
-146.35
-147.46
-146.138
-147.463
-141.646
-143.487
-141.649
-143.492
-141.645
-143.49
-141.648
-143.493
-146.262
-147.471
-146.417
-147.475
-146.306
-147.469
-146.37
-147.472
-141.654
-143.496
-141.656
-143.498
-141.652
-143.497
-141.653
-143.498
-147.96
-134.17
-134.165
-134.169
-134.165
-134.17
-134.165
-134.169
-134.165
-147.883
-134.168
-134.164
-134.166
-134.163
-134.167
-134.164
-134.165
-134.162
-34.9748
-36.0572
-34.9423
-36.1151
-33.2104
-37.307
-33.3001
-37.4438
-42.3454
-34.3049
-36.6112
-33.6145
-37.5494
-33.4156
-37.4852
-33.4188
-37.6023
-42.7228
-35.4852
-43.4584
-35.535
-43.429
-2.88353
-3.66369
-26.3472
-89.5126
-89.5407
-89.5012
-89.5355
-89.5218
-89.526
-89.5083
-89.5205
-8.14367
-57.8394
-58.292
-57.8415
-58.3005
-57.7313
-58.2627
-57.6775
-58.2645
-46.0055
-32.7883
-35.0283
-33.0963
-35.0271
-32.8999
-35.0425
-33.268
-35.0436
-8.05507
-32.2518
-105.446
-97.7712
-97.7868
-97.7644
-97.7855
-97.7665
-97.788
-97.7593
-97.7862
-104.461
-104.579
-104.42
-104.538
-104.474
-104.585
-104.434
-104.544
-90.7738
-104.742
-90.7712
-104.741
-90.7714
-104.747
-90.7687
-104.745
-105.525
-98.4109
-104.49
-104.585
-104.473
-104.565
-104.526
-104.6
-104.513
-104.58
-97.9671
-97.9454
-97.8625
-97.8473
-97.9981
-97.9905
-97.8982
-97.898
-35.7313
-42.3742
-35.5516
-42.9574
-35.9927
-41.9048
-35.7503
-41.9502
-3.29656
-4.3133
3.10913
-1.33273
22.2403
-4.77585
-6.60026
-4.77537
-6.55134
-4.77399
-6.59845
-4.77868
-6.55064
0.417465
-1.31989
10.168
19.4909
26.1097
31.2429
26.2289
32.0568
25.649
31.4269
26.0715
32.053
32.4033
32.5645
31.9659
32.5679
32.3839
32.561
31.9918
32.5638
28.9683
33.6184
25.5321
31.7158
25.7515
31.9976
25.6949
31.1742
25.5695
32.2753
32.3492
32.5511
32.0151
32.5534
32.3235
32.5412
32.0275
32.5431
28.6406
33.6439
4.59069
5.74102
4.5822
5.75653
4.60164
5.73037
4.58944
5.74237
7.18675
9.11044
35.3606
83.8732
83.832
83.8658
83.8347
83.8645
83.8283
83.8574
83.8321
94.606
93.6604
35.0057
83.8072
72.699
93.6282
87.6619
86.5494
87.9612
86.697
88.1317
87.5995
88.2029
87.6787
35.665
40.8549
35.6765
40.4593
35.6372
41.0833
35.6477
40.7006
7.2349
9.26578
82.0279
72.3294
48.7269
72.039
81.5334
72.2041
42.4492
71.9535
88.0434
86.6558
88.1624
89.1354
88.1043
88.1928
88.1323
90.2535
36.2994
41.081
33.8452
41.0369
37.6739
39.0561
37.5894
38.9848
7.23562
9.3076
17.4846
8.51385
4.63962
8.61949
17.5178
8.57986
3.17062
8.57066
50.3078
50.7611
50.3103
50.7666
50.3162
50.7696
50.3133
50.7785
6.62854
7.30002
5.4098
6.46435
5.68677
7.10804
5.42296
6.7234
7.13781
9.03477
0.538166
-2.56023
5.5394
7.06416
8.94849
-0.181169
3.66413
-1.31926
-1.44186
-1.69764
-1.42553
-4.09895
-5.53268
-4.12605
-5.54561
-4.16707
-5.65048
-4.19063
-5.6552
-24.9613
-2.32194
-2.88001
-13.3465
-24.7759
-29.9598
-24.5372
-9.11825
-24.7326
-29.5619
-24.59
-53.4799
-53.1985
-53.5
-53.1631
-53.4939
-53.2114
-53.4863
-53.1912
-42.1742
-2.78952
-3.40551
-67.7587
-72.1521
-53.5227
-73.1646
-18.6917
-72.5779
-20.7483
-73.2676
-98.5181
-93.9433
-98.466
-93.8987
-98.5921
-93.9664
-98.5166
-93.9214
-52.414
-52.2684
-52.3837
-52.2514
-52.4171
-52.2662
-52.3865
-52.249
-3.38472
-4.42
-32.4944
-40.308
-5.57115
-40.4894
-11.5756
-40.328
0.819056
-40.2735
-102.234
-98.4898
-101.245
-101.197
-101.304
-101.164
-101.288
-101.188
-101.318
-101.177
-98.0615
-98.0369
-97.9723
-97.9591
-98.1266
-98.1081
-98.0449
-98.0368
-101.253
-101.225
-101.285
-101.198
-101.321
-101.198
-101.314
-101.194
-98.5638
-101.321
-101.122
-101.368
-101.099
-101.358
-101.1
-101.338
-101.099
-98.1807
-98.1537
-98.1118
-98.0951
-98.2086
-98.1716
-98.1406
-98.1126
-36.8497
-36.7344
-36.8193
-36.7068
-36.7834
-36.635
-36.7624
-36.6167
-3.61926
-4.71048
-0.31943
15.5263
4.7002
15.5414
-0.089604
15.4386
1.00548
15.292
0.318479
0.466825
0.35462
0.375965
0.346888
0.418009
0.385153
0.420826
0.402327
0.407315
0.506098
0.43882
0.528585
0.416262
0.505213
0.443415
0.532632
0.299273
0.347075
0.222984
0.263573
0.210597
0.252841
0.144979
0.180831
0.543643
0.226766
8.87948
10.8877
8.87361
10.8764
8.88041
10.89
8.87261
10.8769
0.070965
0.131412
-0.062344
0.00285394
-0.0163533
0.0359662
-0.131741
-0.0766705
0.476215
0.700923
0.478892
0.674211
0.477422
0.64795
0.405061
0.618277
7.22563
9.13053
18.9533
49.7427
47.7259
49.7572
2.13317
48.5153
48.5515
48.525
48.5726
48.5178
48.5399
48.5392
48.5732
14.4965
48.5351
48.595
48.5425
48.6105
48.5738
48.6108
48.5876
48.6348
138.091
138.035
138.066
138.031
138.093
137.953
138.074
137.998
134.112
134.111
134.129
134.115
134.105
134.13
134.124
134.121
138.018
138.209
138.002
138.208
138.054
138.166
138.042
138.222
134.157
134.128
134.176
134.139
134.154
134.127
134.176
134.138
137.991
137.833
138.02
137.894
137.98
137.758
138.016
137.842
134.094
134.173
134.116
134.13
134.087
134.08
134.095
134.075
134.103
134.108
134.125
134.103
134.132
134.11
134.111
138.1
138.024
138.125
138.086
138.147
137.999
138.18
138.091
134.15
134.127
134.174
134.136
134.146
134.12
134.172
134.133
5.43682
6.10821
5.44555
6.11688
5.43352
6.10509
5.44274
6.11415
6.9424
5.45893
6.13288
5.46992
6.14343
5.45676
6.13059
5.46843
6.14163
6.96147
5.43021
6.10232
5.43953
6.11135
5.42499
6.09762
5.43396
6.10629
6.94083
5.45365
6.12771
5.46563
6.13886
5.44707
6.12139
5.45892
6.13224
6.96049
7.32193
9.36264
56.8743
35.6078
38.45
35.6532
26.6502
35.7453
14.0871
35.79
63.0533
61.1039
63.0911
61.1349
63.0905
61.1542
63.1261
61.1773
17.4286
18.4059
17.4547
18.3953