# vtk DataFile Version 3.0
Gravity effects
ASCII
DATASET UNSTRUCTURED_GRID

POINTS	1681	double
0	0	-0.1
50	0	-0.1
100	0	-0.1
150	0	-0.1
200	0	-0.1
250	0	-0.1
300	0	-0.1
350	0	-0.1
400	0	-0.1
450	0	-0.1
500	0	-0.1
550	0	-0.1
600	0	-0.1
650	0	-0.1
700	0	-0.1
750	0	-0.1
800	0	-0.1
850	0	-0.1
900	0	-0.1
950	0	-0.1
1000	0	-0.1
1050	0	-0.1
1100	0	-0.1
1150	0	-0.1
1200	0	-0.1
1250	0	-0.1
1300	0	-0.1
1350	0	-0.1
1400	0	-0.1
1450	0	-0.1
1500	0	-0.1
1550	0	-0.1
1600	0	-0.1
1650	0	-0.1
1700	0	-0.1
1750	0	-0.1
1800	0	-0.1
1850	0	-0.1
1900	0	-0.1
1950	0	-0.1
2000	0	-0.1
0	50	-0.1
50	50	-0.1
100	50	-0.1
150	50	-0.1
200	50	-0.1
250	50	-0.1
300	50	-0.1
350	50	-0.1
400	50	-0.1
450	50	-0.1
500	50	-0.1
550	50	-0.1
600	50	-0.1
650	50	-0.1
700	50	-0.1
750	50	-0.1
800	50	-0.1
850	50	-0.1
900	50	-0.1
950	50	-0.1
1000	50	-0.1
1050	50	-0.1
1100	50	-0.1
1150	50	-0.1
1200	50	-0.1
1250	50	-0.1
1300	50	-0.1
1350	50	-0.1
1400	50	-0.1
1450	50	-0.1
1500	50	-0.1
1550	50	-0.1
1600	50	-0.1
1650	50	-0.1
1700	50	-0.1
1750	50	-0.1
1800	50	-0.1
1850	50	-0.1
1900	50	-0.1
1950	50	-0.1
2000	50	-0.1
0	100	-0.1
50	100	-0.1
100	100	-0.1
150	100	-0.1
200	100	-0.1
250	100	-0.1
300	100	-0.1
350	100	-0.1
400	100	-0.1
450	100	-0.1
500	100	-0.1
550	100	-0.1
600	100	-0.1
650	100	-0.1
700	100	-0.1
750	100	-0.1
800	100	-0.1
850	100	-0.1
900	100	-0.1
950	100	-0.1
1000	100	-0.1
1050	100	-0.1
1100	100	-0.1
1150	100	-0.1
1200	100	-0.1
1250	100	-0.1
1300	100	-0.1
1350	100	-0.1
1400	100	-0.1
1450	100	-0.1
1500	100	-0.1
1550	100	-0.1
1600	100	-0.1
1650	100	-0.1
1700	100	-0.1
1750	100	-0.1
1800	100	-0.1
1850	100	-0.1
1900	100	-0.1
1950	100	-0.1
2000	100	-0.1
0	150	-0.1
50	150	-0.1
100	150	-0.1
150	150	-0.1
200	150	-0.1
250	150	-0.1
300	150	-0.1
350	150	-0.1
400	150	-0.1
450	150	-0.1
500	150	-0.1
550	150	-0.1
600	150	-0.1
650	150	-0.1
700	150	-0.1
750	150	-0.1
800	150	-0.1
850	150	-0.1
900	150	-0.1
950	150	-0.1
1000	150	-0.1
1050	150	-0.1
1100	150	-0.1
1150	150	-0.1
1200	150	-0.1
1250	150	-0.1
1300	150	-0.1
1350	150	-0.1
1400	150	-0.1
1450	150	-0.1
1500	150	-0.1
1550	150	-0.1
1600	150	-0.1
1650	150	-0.1
1700	150	-0.1
1750	150	-0.1
1800	150	-0.1
1850	150	-0.1
1900	150	-0.1
1950	150	-0.1
2000	150	-0.1
0	200	-0.1
50	200	-0.1
100	200	-0.1
150	200	-0.1
200	200	-0.1
250	200	-0.1
300	200	-0.1
350	200	-0.1
400	200	-0.1
450	200	-0.1
500	200	-0.1
550	200	-0.1
600	200	-0.1
650	200	-0.1
700	200	-0.1
750	200	-0.1
800	200	-0.1
850	200	-0.1
900	200	-0.1
950	200	-0.1
1000	200	-0.1
1050	200	-0.1
1100	200	-0.1
1150	200	-0.1
1200	200	-0.1
1250	200	-0.1
1300	200	-0.1
1350	200	-0.1
1400	200	-0.1
1450	200	-0.1
1500	200	-0.1
1550	200	-0.1
1600	200	-0.1
1650	200	-0.1
1700	200	-0.1
1750	200	-0.1
1800	200	-0.1
1850	200	-0.1
1900	200	-0.1
1950	200	-0.1
2000	200	-0.1
0	250	-0.1
50	250	-0.1
100	250	-0.1
150	250	-0.1
200	250	-0.1
250	250	-0.1
300	250	-0.1
350	250	-0.1
400	250	-0.1
450	250	-0.1
500	250	-0.1
550	250	-0.1
600	250	-0.1
650	250	-0.1
700	250	-0.1
750	250	-0.1
800	250	-0.1
850	250	-0.1
900	250	-0.1
950	250	-0.1
1000	250	-0.1
1050	250	-0.1
1100	250	-0.1
1150	250	-0.1
1200	250	-0.1
1250	250	-0.1
1300	250	-0.1
1350	250	-0.1
1400	250	-0.1
1450	250	-0.1
1500	250	-0.1
1550	250	-0.1
1600	250	-0.1
1650	250	-0.1
1700	250	-0.1
1750	250	-0.1
1800	250	-0.1
1850	250	-0.1
1900	250	-0.1
1950	250	-0.1
2000	250	-0.1
0	300	-0.1
50	300	-0.1
100	300	-0.1
150	300	-0.1
200	300	-0.1
250	300	-0.1
300	300	-0.1
350	300	-0.1
400	300	-0.1
450	300	-0.1
500	300	-0.1
550	300	-0.1
600	300	-0.1
650	300	-0.1
700	300	-0.1
750	300	-0.1
800	300	-0.1
850	300	-0.1
900	300	-0.1
950	300	-0.1
1000	300	-0.1
1050	300	-0.1
1100	300	-0.1
1150	300	-0.1
1200	300	-0.1
1250	300	-0.1
1300	300	-0.1
1350	300	-0.1
1400	300	-0.1
1450	300	-0.1
1500	300	-0.1
1550	300	-0.1
1600	300	-0.1
1650	300	-0.1
1700	300	-0.1
1750	300	-0.1
1800	300	-0.1
1850	300	-0.1
1900	300	-0.1
1950	300	-0.1
2000	300	-0.1
0	350	-0.1
50	350	-0.1
100	350	-0.1
150	350	-0.1
200	350	-0.1
250	350	-0.1
300	350	-0.1
350	350	-0.1
400	350	-0.1
450	350	-0.1
500	350	-0.1
550	350	-0.1
600	350	-0.1
650	350	-0.1
700	350	-0.1
750	350	-0.1
800	350	-0.1
850	350	-0.1
900	350	-0.1
950	350	-0.1
1000	350	-0.1
1050	350	-0.1
1100	350	-0.1
1150	350	-0.1
1200	350	-0.1
1250	350	-0.1
1300	350	-0.1
1350	350	-0.1
1400	350	-0.1
1450	350	-0.1
1500	350	-0.1
1550	350	-0.1
1600	350	-0.1
1650	350	-0.1
1700	350	-0.1
1750	350	-0.1
1800	350	-0.1
1850	350	-0.1
1900	350	-0.1
1950	350	-0.1
2000	350	-0.1
0	400	-0.1
50	400	-0.1
100	400	-0.1
150	400	-0.1
200	400	-0.1
250	400	-0.1
300	400	-0.1
350	400	-0.1
400	400	-0.1
450	400	-0.1
500	400	-0.1
550	400	-0.1
600	400	-0.1
650	400	-0.1
700	400	-0.1
750	400	-0.1
800	400	-0.1
850	400	-0.1
900	400	-0.1
950	400	-0.1
1000	400	-0.1
1050	400	-0.1
1100	400	-0.1
1150	400	-0.1
1200	400	-0.1
1250	400	-0.1
1300	400	-0.1
1350	400	-0.1
1400	400	-0.1
1450	400	-0.1
1500	400	-0.1
1550	400	-0.1
1600	400	-0.1
1650	400	-0.1
1700	400	-0.1
1750	400	-0.1
1800	400	-0.1
1850	400	-0.1
1900	400	-0.1
1950	400	-0.1
2000	400	-0.1
0	450	-0.1
50	450	-0.1
100	450	-0.1
150	450	-0.1
200	450	-0.1
250	450	-0.1
300	450	-0.1
350	450	-0.1
400	450	-0.1
450	450	-0.1
500	450	-0.1
550	450	-0.1
600	450	-0.1
650	450	-0.1
700	450	-0.1
750	450	-0.1
800	450	-0.1
850	450	-0.1
900	450	-0.1
950	450	-0.1
1000	450	-0.1
1050	450	-0.1
1100	450	-0.1
1150	450	-0.1
1200	450	-0.1
1250	450	-0.1
1300	450	-0.1
1350	450	-0.1
1400	450	-0.1
1450	450	-0.1
1500	450	-0.1
1550	450	-0.1
1600	450	-0.1
1650	450	-0.1
1700	450	-0.1
1750	450	-0.1
1800	450	-0.1
1850	450	-0.1
1900	450	-0.1
1950	450	-0.1
2000	450	-0.1
0	500	-0.1
50	500	-0.1
100	500	-0.1
150	500	-0.1
200	500	-0.1
250	500	-0.1
300	500	-0.1
350	500	-0.1
400	500	-0.1
450	500	-0.1
500	500	-0.1
550	500	-0.1
600	500	-0.1
650	500	-0.1
700	500	-0.1
750	500	-0.1
800	500	-0.1
850	500	-0.1
900	500	-0.1
950	500	-0.1
1000	500	-0.1
1050	500	-0.1
1100	500	-0.1
1150	500	-0.1
1200	500	-0.1
1250	500	-0.1
1300	500	-0.1
1350	500	-0.1
1400	500	-0.1
1450	500	-0.1
1500	500	-0.1
1550	500	-0.1
1600	500	-0.1
1650	500	-0.1
1700	500	-0.1
1750	500	-0.1
1800	500	-0.1
1850	500	-0.1
1900	500	-0.1
1950	500	-0.1
2000	500	-0.1
0	550	-0.1
50	550	-0.1
100	550	-0.1
150	550	-0.1
200	550	-0.1
250	550	-0.1
300	550	-0.1
350	550	-0.1
400	550	-0.1
450	550	-0.1
500	550	-0.1
550	550	-0.1
600	550	-0.1
650	550	-0.1
700	550	-0.1
750	550	-0.1
800	550	-0.1
850	550	-0.1
900	550	-0.1
950	550	-0.1
1000	550	-0.1
1050	550	-0.1
1100	550	-0.1
1150	550	-0.1
1200	550	-0.1
1250	550	-0.1
1300	550	-0.1
1350	550	-0.1
1400	550	-0.1
1450	550	-0.1
1500	550	-0.1
1550	550	-0.1
1600	550	-0.1
1650	550	-0.1
1700	550	-0.1
1750	550	-0.1
1800	550	-0.1
1850	550	-0.1
1900	550	-0.1
1950	550	-0.1
2000	550	-0.1
0	600	-0.1
50	600	-0.1
100	600	-0.1
150	600	-0.1
200	600	-0.1
250	600	-0.1
300	600	-0.1
350	600	-0.1
400	600	-0.1
450	600	-0.1
500	600	-0.1
550	600	-0.1
600	600	-0.1
650	600	-0.1
700	600	-0.1
750	600	-0.1
800	600	-0.1
850	600	-0.1
900	600	-0.1
950	600	-0.1
1000	600	-0.1
1050	600	-0.1
1100	600	-0.1
1150	600	-0.1
1200	600	-0.1
1250	600	-0.1
1300	600	-0.1
1350	600	-0.1
1400	600	-0.1
1450	600	-0.1
1500	600	-0.1
1550	600	-0.1
1600	600	-0.1
1650	600	-0.1
1700	600	-0.1
1750	600	-0.1
1800	600	-0.1
1850	600	-0.1
1900	600	-0.1
1950	600	-0.1
2000	600	-0.1
0	650	-0.1
50	650	-0.1
100	650	-0.1
150	650	-0.1
200	650	-0.1
250	650	-0.1
300	650	-0.1
350	650	-0.1
400	650	-0.1
450	650	-0.1
500	650	-0.1
550	650	-0.1
600	650	-0.1
650	650	-0.1
700	650	-0.1
750	650	-0.1
800	650	-0.1
850	650	-0.1
900	650	-0.1
950	650	-0.1
1000	650	-0.1
1050	650	-0.1
1100	650	-0.1
1150	650	-0.1
1200	650	-0.1
1250	650	-0.1
1300	650	-0.1
1350	650	-0.1
1400	650	-0.1
1450	650	-0.1
1500	650	-0.1
1550	650	-0.1
1600	650	-0.1
1650	650	-0.1
1700	650	-0.1
1750	650	-0.1
1800	650	-0.1
1850	650	-0.1
1900	650	-0.1
1950	650	-0.1
2000	650	-0.1
0	700	-0.1
50	700	-0.1
100	700	-0.1
150	700	-0.1
200	700	-0.1
250	700	-0.1
300	700	-0.1
350	700	-0.1
400	700	-0.1
450	700	-0.1
500	700	-0.1
550	700	-0.1
600	700	-0.1
650	700	-0.1
700	700	-0.1
750	700	-0.1
800	700	-0.1
850	700	-0.1
900	700	-0.1
950	700	-0.1
1000	700	-0.1
1050	700	-0.1
1100	700	-0.1
1150	700	-0.1
1200	700	-0.1
1250	700	-0.1
1300	700	-0.1
1350	700	-0.1
1400	700	-0.1
1450	700	-0.1
1500	700	-0.1
1550	700	-0.1
1600	700	-0.1
1650	700	-0.1
1700	700	-0.1
1750	700	-0.1
1800	700	-0.1
1850	700	-0.1
1900	700	-0.1
1950	700	-0.1
2000	700	-0.1
0	750	-0.1
50	750	-0.1
100	750	-0.1
150	750	-0.1
200	750	-0.1
250	750	-0.1
300	750	-0.1
350	750	-0.1
400	750	-0.1
450	750	-0.1
500	750	-0.1
550	750	-0.1
600	750	-0.1
650	750	-0.1
700	750	-0.1
750	750	-0.1
800	750	-0.1
850	750	-0.1
900	750	-0.1
950	750	-0.1
1000	750	-0.1
1050	750	-0.1
1100	750	-0.1
1150	750	-0.1
1200	750	-0.1
1250	750	-0.1
1300	750	-0.1
1350	750	-0.1
1400	750	-0.1
1450	750	-0.1
1500	750	-0.1
1550	750	-0.1
1600	750	-0.1
1650	750	-0.1
1700	750	-0.1
1750	750	-0.1
1800	750	-0.1
1850	750	-0.1
1900	750	-0.1
1950	750	-0.1
2000	750	-0.1
0	800	-0.1
50	800	-0.1
100	800	-0.1
150	800	-0.1
200	800	-0.1
250	800	-0.1
300	800	-0.1
350	800	-0.1
400	800	-0.1
450	800	-0.1
500	800	-0.1
550	800	-0.1
600	800	-0.1
650	800	-0.1
700	800	-0.1
750	800	-0.1
800	800	-0.1
850	800	-0.1
900	800	-0.1
950	800	-0.1
1000	800	-0.1
1050	800	-0.1
1100	800	-0.1
1150	800	-0.1
1200	800	-0.1
1250	800	-0.1
1300	800	-0.1
1350	800	-0.1
1400	800	-0.1
1450	800	-0.1
1500	800	-0.1
1550	800	-0.1
1600	800	-0.1
1650	800	-0.1
1700	800	-0.1
1750	800	-0.1
1800	800	-0.1
1850	800	-0.1
1900	800	-0.1
1950	800	-0.1
2000	800	-0.1
0	850	-0.1
50	850	-0.1
100	850	-0.1
150	850	-0.1
200	850	-0.1
250	850	-0.1
300	850	-0.1
350	850	-0.1
400	850	-0.1
450	850	-0.1
500	850	-0.1
550	850	-0.1
600	850	-0.1
650	850	-0.1
700	850	-0.1
750	850	-0.1
800	850	-0.1
850	850	-0.1
900	850	-0.1
950	850	-0.1
1000	850	-0.1
1050	850	-0.1
1100	850	-0.1
1150	850	-0.1
1200	850	-0.1
1250	850	-0.1
1300	850	-0.1
1350	850	-0.1
1400	850	-0.1
1450	850	-0.1
1500	850	-0.1
1550	850	-0.1
1600	850	-0.1
1650	850	-0.1
1700	850	-0.1
1750	850	-0.1
1800	850	-0.1
1850	850	-0.1
1900	850	-0.1
1950	850	-0.1
2000	850	-0.1
0	900	-0.1
50	900	-0.1
100	900	-0.1
150	900	-0.1
200	900	-0.1
250	900	-0.1
300	900	-0.1
350	900	-0.1
[...]
CELL_DATA	1681
SCALARS T_zz double 1
LOOKUP_TABLE table0
-0.436643
-0.490454
-0.506165
-0.523337
-0.541175
-0.560532
-0.56551
-0.565728
-0.581408
-0.57848
-0.563786
-0.54836
-0.527571
-0.517008
-0.482877
-0.470472
-0.44733
-0.401885
-0.394129
-0.36403
-0.351076
-0.325506
-0.30365
-0.268011
-0.239618
-0.209766
-0.178656
-0.144905
-0.10936
-0.0727091
-0.0376332
-0.00358627
0.0258155
0.0513979
0.072248
0.08627
0.0949778
0.0948635
0.0946931
0.0951476
0.086148
-0.470127
-0.50219
-0.533118
-0.576626
-0.57096
-0.592217
-0.592363
-0.613705
-0.633354
-0.595697
-0.56774
-0.542109
-0.527776
-0.484396
-0.459456
-0.430153
-0.404877
-0.387853
-0.375031
-0.372223
-0.356368
-0.357125
-0.343631
-0.327892
-0.293998
-0.286203
-0.262058
-0.228604
-0.179407
-0.141418
-0.0989656
-0.0544851
-0.010683
0.025374
0.0558117
0.076416
0.0969484
0.100435
0.10341
0.104763
0.0964929
-0.50894
-0.536976
-0.560806
-0.612221
-0.620883
-0.653832
-0.633178
-0.616483
-0.626255
-0.61315
-0.544277
-0.504797
-0.470633
-0.421371
-0.371268
-0.348092
-0.313619
-0.306668
-0.321883
-0.341626
-0.360761
-0.387501
-0.395576
-0.422592
-0.431268
-0.412871
-0.408983
-0.384744
-0.340444
-0.278372
-0.208138
-0.147654
-0.082426
-0.0269566
0.0205639
0.0576185
0.0795323
0.0976673
0.109464
0.109604
0.102446
-0.554342
-0.562202
-0.596714
-0.622755
-0.666549
-0.642903
-0.650631
-0.660775
-0.613124
-0.534199
-0.475024
-0.392956
-0.320291
-0.241359
-0.183161
-0.145048
-0.141046
-0.158544
-0.199365
-0.252197
-0.322412
-0.40185
-0.476973
-0.561417
-0.599943
-0.634893
-0.661869
-0.613563
-0.582709
-0.508861
-0.402582
-0.303906
-0.216595
-0.119659
-0.0448746
0.0144793
0.0579645
0.0856264
0.102418
0.109528
0.10606
-0.572934
-0.60725
-0.638822
-0.649284
-0.669929
-0.639825
-0.64399
-0.595666
-0.537654
-0.425684
-0.324207
-0.175788
-0.0344363
0.0870329
0.179282
0.217864
0.213738
0.145603
0.0384568
-0.108157
-0.27502
-0.438012
-0.631077
-0.77483
-0.914396
-1.01599
-1.11535
-1.02988
-1.00865
-0.911854
-0.714044
-0.596479
-0.458379
-0.284219
-0.158916
-0.0614913
0.01075
0.0623721
0.0902864
0.10693
0.109107
-0.61208
-0.662148
-0.675304
-0.689571
-0.696826
-0.677707
-0.616511
-0.529756
-0.420653
-0.2386
-0.0193018
0.220366
0.460201
0.655612
0.84055
0.898467
0.867128
0.701416
0.474947
0.182547
-0.139186
-0.487652
-0.809607
-1.1266
-1.4865
-1.67111
-1.77354
-1.86153
-1.7667
-1.61539
-1.33664
-1.09577
-0.767153
-0.537118
-0.336708
-0.185915
-0.0631315
0.0137329
0.0645823
0.0899217
0.103508
-0.650655
-0.665864
-0.705221
-0.719315
-0.688127
-0.675243
-0.573662
-0.431272
-0.19659
0.0964827
0.470531
0.881221
1.33163
1.6717
1.89061
2.04418
1.9121
1.60214
1.27205
0.686336
0.0814163
-0.541054
-1.14977
-1.77645
-2.32559
-2.59197
-2.934
-3.11351
-2.86056
-2.63528
-2.18912
-1.82193
-1.34507
-0.939139
-0.600689
-0.367512
-0.17802
-0.0540594
0.0235956
0.0675886
0.0927732
-0.667159
-0.684902
-0.730573
-0.739769
-0.687248
-0.612638
-0.466879
-0.231958
0.12241
0.597097
1.29719
1.89396
2.79494
3.30499
3.7544
3.91121
3.76311
3.24008
2.4239
1.48863
0.470994
-0.583732
-1.60802
-2.61454
-3.64905
-4.50616
-4.80583
-4.96415
-4.84937
-4.28439
-3.73869
-2.98609
-2.16966
-1.54681
-0.979707
-0.622528
-0.336116
-0.151796
-0.0342317
0.0345711
0.0702512
-0.693958
-0.737752
-0.746603
-0.718247
-0.662133
-0.561722
-0.318537
0.0288792
0.56762
1.31909
2.37537
3.57812
4.87452
5.94894
6.77612
7.08379
6.6791
5.44327
4.49573
2.84472
1.12906
-0.642178
-2.40823
-4.03179
-5.90624
-7.06286
-8.11346
-8.13269
-7.89245
-6.91655
-5.89366
-4.66445
-3.38503
-2.32644
-1.55157
-0.910062
-0.534743
-0.27648
-0.10626
-0.00840472
0.0453318
-0.731552
-0.750424
-0.766799
-0.70284
-0.626593
-0.462503
-0.156797
0.364282
1.13057
2.2873
3.88813
5.90967
8.248
9.63585
11.0017
11.5837
10.7142
9.6445
7.24317
4.57888
1.9584
-0.713955
-3.31024
-6.21915
-8.69183
-10.8497
-11.93
-13.0959
-12.4975
-11.1507
-9.42867
-7.02047
-4.94668
-3.4682
-2.19906
-1.28106
-0.793337
-0.399842
-0.195305
-0.059991
0.0123165
-0.762746
-0.754475
-0.751982
-0.698071
-0.610424
-0.381579
0.0410639
0.751631
1.75098
3.4594
5.87064
8.83861
12.3057
15.0926
16.6046
17.258
16.9398
14.4153
11.058
7.07652
3.11957
-0.756489
-4.93476
-8.78213
-12.4789
-16.3414
-18.8884
-18.7037
-18.5315
-16.0297
-13.304
-9.64554
-7.02826
-4.50647
-2.99729
-1.81115
-1.06336
-0.567519
-0.289592
-0.120452
-0.0259824
-0.752502
-0.785146
-0.802677
-0.711074
-0.563893
-0.283303
0.236286
1.14165
2.47913
4.74834
7.77905
12.1806
16.5966
21.5033
24.0915
24.8538
22.5322
20.8517
15.1641
9.63871
4.45544
-0.832566
-5.96104
-11.7132
-17.1031
-22.3361
-25.2809
-27.9099
-25.7478
-22.7267
-17.7884
-13.5713
-8.88321
-6.00976
-3.72982
-2.23536
-1.24178
-0.717915
-0.380843
-0.189111
-0.0688268
-0.78268
-0.806495
-0.776954
-0.690439
-0.529618
-0.200365
0.390081
1.39344
3.14167
5.83354
9.34583
14.8631
21.4468
26.2678
30.4786
30.5895
30.4559
27.2937
19.3721
12.8029
5.73478
-0.901974
-7.41017
-14.7942
-21.6819
-27.4005
-31.329
-33.9122
-32.576
-29.3228
-22.202
-16.255
-10.9617
-7.22802
-4.45441
-2.64445
-1.57618
-0.892884
-0.47321
-0.24435
-0.110578
-0.83354
-0.815134
-0.777708
-0.736711
-0.542453
-0.163914
0.497606
1.63669
3.43626
6.46804
11.0283
16.4731
23.24
30.1464
34.4302
36.6045
34.3252
29.5739
22.8238
14.0503
6.43632
-0.951095
-8.50565
-16.6318
-24.0053
-31.5845
-36.5401
-38.2109
-36.7636
-31.5772
-25.6821
-18.852
-12.412
-8.01923
-4.74462
-2.92221
-1.7543
-1.01911
-0.556275
-0.29088
-0.151363
-0.779191
-0.84304
-0.836556
-0.723985
-0.542652
-0.169567
0.507373
1.65356
3.65915
6.50139
11.2118
17.2378
24.6654
31.7459
36.4155
38.2515
35.1989
30.2749
23.361
14.7743
6.88081
-1.02845
-9.02265
-16.8732
-26.2083
-34.1989
-38.2063
-37.9662
-38.4045
-33.6233
-26.9526
-19.5516
-12.9429
-8.35212
-5.06833
-3.03854
-1.87555
-1.08883
-0.602628
-0.347026
-0.200504
-0.827334
-0.839827
-0.82764
-0.766095
-0.575352
-0.223251
0.442673
1.59215
3.4791
6.36758
10.6828
16.5282
24.1823
30.32
35.3263
37.8346
33.4903
28.4093
22.6838
13.6749
6.28732
-1.03152
-8.51949
-16.1648
-24.0503
-30.607
-35.4765
-37.8314
-36.3337
-32.9493
-25.0506
-18.7635
-12.7989
-7.88716
-5.16199
-3.06551
-1.87816
-1.0372
-0.649171
-0.38299
-0.227727
-0.846382
-0.876474
-0.871001
-0.824482
-0.657811
-0.325575
0.2786
1.33447
2.98654
5.64526
9.70125
15.2516
20.9417
26.0406
29.8136
31.6433
29.6988
25.4687
19.3309
12.2142
5.48895
-1.00932
-7.67554
-14.2713
-22.5226
-28.042
-32.2375
-32.1628
-32.5477
-29.3568
-22.9167
-16.5289
-10.6649
-7.00454
-4.52449
-2.79469
-1.67715
-1.03961
-0.652005
-0.396055
-0.256881
-0.870976
-0.844464
-0.855063
-0.822295
-0.71614
-0.43531
0.0516583
0.844605
2.30752
4.39973
7.42271
11.8618
16.6353
20.4463
23.4607
25.1393
23.7467
20.718
15.3899
9.73839
4.52769
-0.902555
-5.95841
-11.4073
-16.8842
-21.193
-25.7928
-26.3524
-25.2987
-22.531
-18.5747
-13.6442
-9.23557
-6.06147
-3.93495
-2.50173
-1.58098
-0.965565
-0.609076
-0.410471
-0.287394
-0.866263
-0.90525
-0.939257
-0.866868
-0.797129
-0.60871
-0.201074
0.470181
1.52421
3.18307
5.44514
8.52053
12.0792
14.862
17.0735
17.6668
17.1353
14.5002
10.8366
7.15719
3.13388
-0.650314
-4.61845
-8.79696
-12.4968
-16.1117
-17.9053
-18.6559
-18.4725
-16.199
-12.9863
-10.1626
-7.19794
-4.96134
-3.23608
-2.11191
-1.37888
-0.885819
-0.619543
-0.442565
-0.315306
-0.862329
-0.939517
-0.919992
-0.890025
-0.860452
-0.726923
-0.458148
0.0332926
0.77862
1.93003
3.54773
5.47615
7.3761
9.64939
10.9801
11.4339
10.7795
9.78638
7.34335
4.94809
2.4141
-0.167997
-2.68435
-5.28067
-8.06335
-9.89178
-11.4961
-11.8985
-11.6695
-10.9667
-8.82335
-7.02214
-4.95221
-3.57347
-2.45469
-1.69387
-1.15903
-0.804603
-0.562636
-0.449944
-0.340151
-0.882788
-0.95159
-0.940345
-0.984844
-0.94833
-0.87234
-0.690995
-0.351317
0.16039
0.89623
1.92216
3.13289
4.34129
5.64299
6.5237
7.03265
6.69167
6.20514
5.05157
3.75221
2.17794
0.674822
-0.878564
-2.54195
-3.97778
-5.27714
-6.17047
-6.92958
-6.85817
-6.26182
-5.2277
-4.19801
-3.15406
-2.47668
-1.81308
-1.28365
-0.950743
-0.684548
-0.54728
-0.434482
-0.360122
-0.87003
-0.956839
-1.0061
-1.01873
-1.03859
-0.989139
-0.886644
-0.659881
-0.335272
0.127426
0.74591
1.46881
2.2643
2.97192
3.62078
4.01857
4.11887
4.04728
4.03086
3.33235
2.75569
2.00768
1.2546
0.3888
-0.49519
-1.28097
-1.9649
-2.38052
-2.56772
-2.49018
-2.31029
-1.91258
-1.61912
-1.32184
-1.06221
-0.832405
-0.715141
-0.599342
-0.498146
-0.447077
-0.386212
-0.848505
-0.938638
-0.99651
-1.05475
-1.05349
-1.01917
-0.993032
-0.901511
-0.678461
-0.400763
-0.0303462
0.430286
1.00234
1.57339
2.06744
2.62917
3.02044
3.5175
3.89448
4.12035
4.26698
4.29504
4.05677
3.72993
3.19648
2.76691
2.28839
1.85652
1.31824
0.8673
0.487474
0.139136
-0.134628
-0.330477
-0.434447
-0.515074
-0.514963
-0.510475
-0.446954
-0.455499
-0.396056
-0.877534
-0.93385
-0.975601
-1.05217
-1.06675
-1.14735
-1.07864
-1.06282
-0.92323
-0.7505
-0.538948
-0.197388
0.215948
0.72583
1.35523
2.14838
2.97446
3.96304
5.11918
6.14324
7.24689
7.56382
7.79232
8.27536
7.96418
7.52152
7.20436
6.31942
5.37731
4.4859
3.3931
2.41078
1.36526
0.698596
0.184724
-0.120586
-0.310769
-0.403456
-0.456121
-0.448641
-0.418596
-0.860086
-0.910732
-0.956844
-1.04472
-1.12572
-1.10265
-1.14801
-1.12326
-1.11245
-0.948441
-0.830197
-0.556123
-0.155604
0.377511
1.17027
2.27627
3.79989
5.46962
7.56588
9.74674
11.6397
12.9873
13.4501
14.3889
13.9177
13.7463
12.8366
12.2186
11.2482
8.74916
6.93443
4.76901
3.02701
1.81202
0.834548
0.246166
-0.110677
-0.31701
-0.420605
-0.465665
-0.44874
-0.823616
-0.894948
-0.984901
-1.0293
-1.11211
-1.12949
-1.18748
-1.20472
-1.14549
-1.12064
-0.996741
-0.713676
-0.312102
0.338777
1.36165
2.93652
4.90359
8.03766
11.2123
14.6297
16.9572
19.5402
20.8108
21.1003
21.9309
20.5258
20.4531
19.1849
17.2525
13.8304
11.0414
7.63694
4.8548
2.86965
1.47432
0.593916
0.0622269
-0.233713
-0.383999
-0.4529
-0.464384
-0.799829
-0.873516
-0.960358
-1.02629
-1.09847
-1.14294
-1.20845
-1.22478
-1.28162
-1.17902
-1.02837
-0.766494
-0.338258
0.405786
1.67039
3.56143
6.21531
10.2432
14.7247
19.5639
23.0168
27.2747
27.2771
29.1476
28.8931
28.1233
27.7466
25.5523
23.4298
19.7162
15.2877
10.7265
6.77902
3.94444
2.05103
0.895014
0.211906
-0.174042
-0.379072
-0.462696
-0.490318
-0.790946
-0.876665
-0.950959
-1.01904
-1.08219
-1.12968
-1.18367
-1.22152
-1.22977
-1.1415
-1.05574
-0.802575
-0.326731
0.519512
1.88845
4.01724
7.3384
12.4284
18.4951
22.7185
28.5508
32.1558
33.2707
35.8291
35.4708
35.1624
32.5352
32.5721
27.8306
23.8352
18.4568
12.8029
7.66495
4.60245
2.4355
1.08855
0.295857
-0.138555
-0.375999
-0.489894
-0.519757
-0.753404
-0.865617
-0.920057
-0.959803
-1.01466
-1.11991
-1.16842
-1.20096
-1.22914
-1.17652
-1.07292
-0.786923
-0.326465
0.537927
1.99515
4.2555
7.7627
12.9691
19.0947
25.2437
30.2515
34.1408
36.4039
36.9859
38.5531
37.4363
36.285
34.2235
29.5885
25.848
20.0614
13.3802
8.4089
4.84889
2.50919
1.15015
0.321176
-0.148497
-0.393455
-0.509692
-0.554139
-0.750241
-0.833031
-0.88569
-0.953282
-1.01947
-1.12446
-1.11416
-1.20506
-1.17636
-1.15823
-1.01939
-0.804128
-0.353669
0.4665
1.83958
3.87893
7.21928
12.5407
18.3294
23.9562
28.738
31.9009
34.0525
35.1529
35.7943
34.7449
34.1873
31.0802
28.6743
24.431
18.5911
12.7189
7.93386
4.59299
2.45345
1.03328
0.24575
-0.195859
-0.431776
-0.534888
-0.560184
-0.717221
-0.779559
-0.83752
-0.925499
-0.960787
-1.04131
-1.11653
-1.14729
-1.21331
-1.16366
-1.04669
-0.843449
-0.452972
0.26078
1.47828
3.36095
6.16871
10.2031
15.1255
20.0246
24.029
26.455
28.3965
28.6791
29.9373
29.0885
28.781
26.1518
23.4108
19.4238
15.8096
10.4575
6.54248
3.83934
2.01182
0.838131
0.120578
-0.269646
-0.487079
-0.574356
-0.595161
-0.69114
-0.759616
-0.816049
-0.894282
-0.962321
-1.0066
-1.04095
-1.10757
-1.13404
-1.12325
-1.06768
-0.876932
-0.57161
0.00519929
0.976313
2.39025
4.69193
7.44695
10.7913
14.3234
17.9966
19.1291
19.9284
21.3305
21.971
21.2817
20.9527
19.5022
16.727
14.0492
11.4415
7.96041
5.00557
3.02178
1.43196
0.510401
-0.0470603
-0.377584
-0.54197
-0.617043
-0.619543
-0.676945
-0.728983
-0.783315
-0.840944
-0.913799
-0.972379
-1.05437
-1.09088
-1.07184
-1.11081
-1.09964
-0.946177
-0.706406
-0.282361
0.421231
1.49478
2.99114
4.87002
6.97899
9.74542
11.2142
12.7281
13.6674
13.9398
14.6855
14.4748
13.8057
13.236
11.3357
9.43717
7.33244
5.12831
3.37529
1.87928
0.864303
0.184025
-0.231947
-0.47461
-0.594296
-0.647497
-0.646401
-0.670056
-0.717299
-0.757332
-0.806881
-0.857357
-0.932729
-1.04402
-1.02335
-1.0848
-1.11564
-1.03572
-0.97052
-0.836554
-0.530316
-0.0546539
0.646594
1.67418
2.79927
4.37912
5.60535
6.60822
7.71222
8.19834
9.09561
8.82333
8.9319
8.55007
7.7293
6.97809
5.98886
4.43325
3.09414
2.05768
1.06115
0.332882
-0.122838
-0.398054
-0.556488
-0.648608
-0.662161
-0.69103
-0.611848
-0.661969
-0.729433
-0.790413
-0.840584
-0.917177
-0.949218
-1.03177
-1.04417
-1.09446
-1.10244
-1.06981
-0.919606
-0.752934
-0.444596
0.00898901
0.617959
1.34709
2.20884
2.97251
3.71905
4.30362
4.65034
5.16092
4.99111
4.91118
4.88347
4.2199
3.87885
3.32235
2.34829
1.59978
0.929099
0.333691
-0.0844566
-0.37496
-0.530063
-0.647281
-0.716293
-0.679505
-0.670011
-0.612887
-0.662845
-0.677161
-0.731241
-0.812973
-0.860148
-0.917246
-0.986105
-1.02819
-1.02549
-1.05405
-1.05352
-0.964133
-0.871665
-0.72987
-0.437615
-0.100954
0.326774
0.806911
1.26708
1.66988
1.98859
2.4034
2.54688
2.47203
2.52225
2.4481
2.21491
1.88463
1.47697
1.04275
0.590369
0.175743
-0.153289
-0.392231
-0.56683
-0.683829
-0.70953
-0.71208
-0.672322
-0.683393
-0.562803
-0.596346
-0.645079
-0.691081
-0.739515
-0.808684
-0.870339
-0.902202
-0.963695
-1.0382
-1.03507
-1.06205
-1.05061
-0.994394
-0.910088
-0.75077
-0.554484
-0.322858
-0.0575579
0.203259
0.464483
0.640936
0.836316
0.913278
0.984074
0.956107
0.905148
0.739332
0.598242
0.36946
0.142366
-0.097984
-0.309858
-0.51348
-0.611056
-0.715092
-0.719755
-0.769822
-0.734165
-0.688976
-0.664612
-0.527376
-0.575545
-0.631755
-0.695567
-0.746435
-0.775242
-0.832804
-0.873455
-0.952078
-0.993204
-1.0159
-1.04361
-1.05839
-1.05765
-0.97185
-0.930683
-0.832818
-0.701899
-0.552044
-0.408856
-0.286344
-0.17665
-0.0814023
-0.0169656
0.0144271
0.0139894
-0.0175794
-0.079157
-0.166097
-0.280002
-0.39282
-0.509601
-0.634784
-0.698824
-0.749286
-0.806585
-0.779488
-0.773299
-0.730724
-0.694426
-0.648263
-0.52802
-0.562988
-0.583155
-0.642324
-0.682477
-0.73658
-0.789583
-0.838926
-0.881454
-0.917941
-0.936457
-0.989693
-1.0872
-1.04757
-1.04921
-0.96618
-0.951402
-0.956058
-0.847883
-0.797075
-0.710007
-0.646121
-0.589858
-0.563197
-0.531823
-0.532194
-0.538544
-0.548626
-0.602016
-0.638089
-0.715238
-0.737831
-0.771284
-0.814408
-0.816662
-0.784495
-0.785717
-0.751549
-0.729119
-0.654847
-0.636255
-0.498347
-0.557512
-0.576151
-0.616905
-0.664195
-0.697826
-0.74374
-0.769384
-0.819211
-0.874829
-0.917277
-0.938102
-0.979097
-1.02694
-1.07274
-1.03676
-1.06173
-1.0055
-0.997571
-0.947246
-0.898366
-0.911516
-0.839872
-0.858183
-0.839641
-0.836643
-0.821939
-0.828875
-0.822909
-0.844482
-0.864553
-0.850711
-0.834947
-0.849424
-0.848554
-0.807392
-0.781027
-0.735552
-0.692149
-0.666794
-0.611286
-0.467454
-0.4835
-0.530543
-0.587574
-0.613963
-0.656899
-0.697815
-0.742487
-0.805128
-0.839468
-0.89207
-0.913721
-0.904343
-0.970355
-0.997224
-1.01186
-1.05472
-1.02867
-1.01843
-1.01678
-0.994498
-1.01099
-1.0163
-0.998357
-0.997508
-0.94779
-0.956303
-0.932609
-0.95105
-0.936879
-0.919959
-0.921569
-0.892279
-0.854922
-0.822582
-0.773206
-0.7792
-0.751164
-0.674906
-0.616819
-0.587686

POINT_DATA	1681
SCALARS T_zz double 1
LOOKUP_TABLE table0
-0.436643
-0.490454
-0.506165
-0.523337
-0.541175
-0.560532
-0.56551
-0.565728
-0.581408
-0.57848
-0.563786
-0.54836
-0.527571
-0.517008
-0.482877
-0.470472
-0.44733
-0.401885
-0.394129
-0.36403
-0.351076
-0.325506
-0.30365
-0.268011
-0.239618
-0.209766
-0.178656
-0.144905
-0.10936
-0.0727091
-0.0376332
-0.00358627
0.0258155
0.0513979
0.072248
0.08627
0.0949778
0.0948635
0.0946931
0.0951476
0.086148
-0.470127
-0.50219
-0.533118
-0.576626
-0.57096
-0.592217
-0.592363
-0.613705
-0.633354
-0.595697
-0.56774
-0.542109
-0.527776
-0.484396
-0.459456
-0.430153
-0.404877
-0.387853
-0.375031
-0.372223
-0.356368
-0.357125
-0.343631
-0.327892
-0.293998
-0.286203
-0.262058
-0.228604
-0.179407
-0.141418
-0.0989656
-0.0544851
-0.010683
0.025374
0.0558117
0.076416
0.0969484
0.100435
0.10341
0.104763
0.0964929
-0.50894
-0.536976
-0.560806
-0.612221
-0.620883
-0.653832
-0.633178
-0.616483
-0.626255
-0.61315
-0.544277
-0.504797
-0.470633
-0.421371
-0.371268
-0.348092
-0.313619
-0.306668
-0.321883
-0.341626
-0.360761
-0.387501
-0.395576
-0.422592
-0.431268
-0.412871
-0.408983
-0.384744
-0.340444
-0.278372
-0.208138
-0.147654
-0.082426
-0.0269566
0.0205639
0.0576185
0.0795323
0.0976673
0.109464
0.109604
0.102446
-0.554342
-0.562202
-0.596714
-0.622755
-0.666549
-0.642903
-0.650631
-0.660775
-0.613124
-0.534199
-0.475024
-0.392956
-0.320291
-0.241359
-0.183161
-0.145048
-0.141046
-0.158544
-0.199365
-0.252197
-0.322412
-0.40185
-0.476973
-0.561417
-0.599943
-0.634893
-0.661869
-0.613563
-0.582709
-0.508861
-0.402582
-0.303906
-0.216595
-0.119659
-0.0448746
0.0144793
0.0579645
0.0856264
0.102418
0.109528
0.10606
-0.572934
-0.60725
-0.638822
-0.649284
-0.669929
-0.639825
-0.64399
-0.595666
-0.537654
-0.425684
-0.324207
-0.175788
-0.0344363
0.0870329
0.179282
0.217864
0.213738
0.145603
0.0384568
-0.108157
-0.27502
-0.438012
-0.631077
-0.77483
-0.914396
-1.01599
-1.11535
-1.02988
-1.00865
-0.911854
-0.714044
-0.596479
-0.458379
-0.284219
-0.158916
-0.0614913
0.01075
0.0623721
0.0902864
0.10693
0.109107
-0.61208
-0.662148
-0.675304
-0.689571
-0.696826
-0.677707
-0.616511
-0.529756
-0.420653
-0.2386
-0.0193018
0.220366
0.460201
0.655612
0.84055
0.898467
0.867128
0.701416
0.474947
0.182547
-0.139186
-0.487652
-0.809607
-1.1266
-1.4865
-1.67111
-1.77354
-1.86153
-1.7667
-1.61539
-1.33664
-1.09577
-0.767153
-0.537118
-0.336708
-0.185915
-0.0631315
0.0137329
0.0645823
0.0899217
0.103508
-0.650655
-0.665864
-0.705221
-0.719315
-0.688127
-0.675243
-0.573662
-0.431272
-0.19659
0.0964827
0.470531
0.881221
1.33163
1.6717
1.89061
2.04418
1.9121
1.60214
1.27205
0.686336
0.0814163
-0.541054
-1.14977
-1.77645
-2.32559
-2.59197
-2.934
-3.11351
-2.86056
-2.63528
-2.18912
-1.82193
-1.34507
-0.939139
-0.600689
-0.367512
-0.17802
-0.0540594
0.0235956
0.0675886
0.0927732
-0.667159
-0.684902
-0.730573
-0.739769
-0.687248
-0.612638
-0.466879
-0.231958
0.12241
0.597097
1.29719
1.89396
2.79494
3.30499
3.7544
3.91121
3.76311
3.24008
2.4239
1.48863
0.470994
-0.583732
-1.60802
-2.61454
-3.64905
-4.50616
-4.80583
-4.96415
-4.84937
-4.28439
-3.73869
-2.98609
-2.16966
-1.54681
-0.979707
-0.622528
-0.336116
-0.151796
-0.0342317
0.0345711
0.0702512
-0.693958
-0.737752
-0.746603
-0.718247
-0.662133
-0.561722
-0.318537
0.0288792
0.56762
1.31909
2.37537
3.57812
4.87452
5.94894
6.77612
7.08379
6.6791
5.44327
4.49573
2.84472
1.12906
-0.642178
-2.40823
-4.03179
-5.90624
-7.06286
-8.11346
-8.13269
-7.89245
-6.91655
-5.89366
-4.66445
-3.38503
-2.32644
-1.55157
-0.910062
-0.534743
-0.27648
-0.10626
-0.00840472
0.0453318
-0.731552
-0.750424
-0.766799
-0.70284
-0.626593
-0.462503
-0.156797
0.364282
1.13057
2.2873
3.88813
5.90967
8.248
9.63585
11.0017
11.5837
10.7142
9.6445
7.24317
4.57888
1.9584
-0.713955
-3.31024
-6.21915
-8.69183
-10.8497
-11.93
-13.0959
-12.4975
-11.1507
-9.42867
-7.02047
-4.94668
-3.4682
-2.19906
-1.28106
-0.793337
-0.399842
-0.195305
-0.059991
0.0123165
-0.762746
-0.754475
-0.751982
-0.698071
-0.610424
-0.381579
0.0410639
0.751631
1.75098
3.4594
5.87064
8.83861
12.3057
15.0926
16.6046
17.258
16.9398
14.4153
11.058
7.07652
3.11957
-0.756489
-4.93476
-8.78213
-12.4789
-16.3414
-18.8884
-18.7037
-18.5315
-16.0297
-13.304
-9.64554
-7.02826
-4.50647
-2.99729
-1.81115
-1.06336
-0.567519
-0.289592
-0.120452
-0.0259824
-0.752502
-0.785146
-0.802677
-0.711074
-0.563893
-0.283303
0.236286
1.14165
2.47913
4.74834
7.77905
12.1806
16.5966
21.5033
24.0915
24.8538
22.5322
20.8517
15.1641
9.63871
4.45544
-0.832566
-5.96104
-11.7132
-17.1031
-22.3361
-25.2809
-27.9099
-25.7478
-22.7267
-17.7884
-13.5713
-8.88321
-6.00976
-3.72982
-2.23536
-1.24178
-0.717915
-0.380843
-0.189111
-0.0688268
-0.78268
-0.806495