# vtk DataFile Version 3.0
Gravity effects
ASCII
DATASET UNSTRUCTURED_GRID

POINTS	1681	double
0	0	-0.1
50	0	-0.1
100	0	-0.1
150	0	-0.1
200	0	-0.1
250	0	-0.1
300	0	-0.1
350	0	-0.1
400	0	-0.1
450	0	-0.1
500	0	-0.1
550	0	-0.1
600	0	-0.1
650	0	-0.1
700	0	-0.1
750	0	-0.1
800	0	-0.1
850	0	-0.1
900	0	-0.1
950	0	-0.1
1000	0	-0.1
1050	0	-0.1
1100	0	-0.1
1150	0	-0.1
1200	0	-0.1
1250	0	-0.1
1300	0	-0.1
1350	0	-0.1
1400	0	-0.1
1450	0	-0.1
1500	0	-0.1
1550	0	-0.1
1600	0	-0.1
1650	0	-0.1
1700	0	-0.1
1750	0	-0.1
1800	0	-0.1
1850	0	-0.1
1900	0	-0.1
1950	0	-0.1
2000	0	-0.1
0	50	-0.1
50	50	-0.1
100	50	-0.1
150	50	-0.1
200	50	-0.1
250	50	-0.1
300	50	-0.1
350	50	-0.1
400	50	-0.1
450	50	-0.1
500	50	-0.1
550	50	-0.1
600	50	-0.1
650	50	-0.1
700	50	-0.1
750	50	-0.1
800	50	-0.1
850	50	-0.1
900	50	-0.1
950	50	-0.1
1000	50	-0.1
1050	50	-0.1
1100	50	-0.1
1150	50	-0.1
1200	50	-0.1
1250	50	-0.1
1300	50	-0.1
1350	50	-0.1
1400	50	-0.1
1450	50	-0.1
1500	50	-0.1
1550	50	-0.1
1600	50	-0.1
1650	50	-0.1
1700	50	-0.1
1750	50	-0.1
1800	50	-0.1
1850	50	-0.1
1900	50	-0.1
1950	50	-0.1
2000	50	-0.1
0	100	-0.1
50	100	-0.1
100	100	-0.1
150	100	-0.1
200	100	-0.1
250	100	-0.1
300	100	-0.1
350	100	-0.1
400	100	-0.1
450	100	-0.1
500	100	-0.1
550	100	-0.1
600	100	-0.1
650	100	-0.1
700	100	-0.1
750	100	-0.1
800	100	-0.1
850	100	-0.1
900	100	-0.1
950	100	-0.1
1000	100	-0.1
1050	100	-0.1
1100	100	-0.1
1150	100	-0.1
1200	100	-0.1
1250	100	-0.1
1300	100	-0.1
1350	100	-0.1
1400	100	-0.1
1450	100	-0.1
1500	100	-0.1
1550	100	-0.1
1600	100	-0.1
1650	100	-0.1
1700	100	-0.1
1750	100	-0.1
1800	100	-0.1
1850	100	-0.1
1900	100	-0.1
1950	100	-0.1
2000	100	-0.1
0	150	-0.1
50	150	-0.1
100	150	-0.1
150	150	-0.1
200	150	-0.1
250	150	-0.1
300	150	-0.1
350	150	-0.1
400	150	-0.1
450	150	-0.1
500	150	-0.1
550	150	-0.1
600	150	-0.1
650	150	-0.1
700	150	-0.1
750	150	-0.1
800	150	-0.1
850	150	-0.1
900	150	-0.1
950	150	-0.1
1000	150	-0.1
1050	150	-0.1
1100	150	-0.1
1150	150	-0.1
1200	150	-0.1
1250	150	-0.1
1300	150	-0.1
1350	150	-0.1
1400	150	-0.1
1450	150	-0.1
1500	150	-0.1
1550	150	-0.1
1600	150	-0.1
1650	150	-0.1
1700	150	-0.1
1750	150	-0.1
1800	150	-0.1
1850	150	-0.1
1900	150	-0.1
1950	150	-0.1
2000	150	-0.1
0	200	-0.1
50	200	-0.1
100	200	-0.1
150	200	-0.1
200	200	-0.1
250	200	-0.1
300	200	-0.1
350	200	-0.1
400	200	-0.1
450	200	-0.1
500	200	-0.1
550	200	-0.1
600	200	-0.1
650	200	-0.1
700	200	-0.1
750	200	-0.1
800	200	-0.1
850	200	-0.1
900	200	-0.1
950	200	-0.1
1000	200	-0.1
1050	200	-0.1
1100	200	-0.1
1150	200	-0.1
1200	200	-0.1
1250	200	-0.1
1300	200	-0.1
1350	200	-0.1
1400	200	-0.1
1450	200	-0.1
1500	200	-0.1
1550	200	-0.1
1600	200	-0.1
1650	200	-0.1
1700	200	-0.1
1750	200	-0.1
1800	200	-0.1
1850	200	-0.1
1900	200	-0.1
1950	200	-0.1
2000	200	-0.1
0	250	-0.1
50	250	-0.1
100	250	-0.1
150	250	-0.1
200	250	-0.1
250	250	-0.1
300	250	-0.1
350	250	-0.1
400	250	-0.1
450	250	-0.1
500	250	-0.1
550	250	-0.1
600	250	-0.1
650	250	-0.1
700	250	-0.1
750	250	-0.1
800	250	-0.1
850	250	-0.1
900	250	-0.1
950	250	-0.1
1000	250	-0.1
1050	250	-0.1
1100	250	-0.1
1150	250	-0.1
1200	250	-0.1
1250	250	-0.1
1300	250	-0.1
1350	250	-0.1
1400	250	-0.1
1450	250	-0.1
1500	250	-0.1
1550	250	-0.1
1600	250	-0.1
1650	250	-0.1
1700	250	-0.1
1750	250	-0.1
1800	250	-0.1
1850	250	-0.1
1900	250	-0.1
1950	250	-0.1
2000	250	-0.1
0	300	-0.1
50	300	-0.1
100	300	-0.1
150	300	-0.1
200	300	-0.1
250	300	-0.1
300	300	-0.1
350	300	-0.1
400	300	-0.1
450	300	-0.1
500	300	-0.1
550	300	-0.1
600	300	-0.1
650	300	-0.1
700	300	-0.1
750	300	-0.1
800	300	-0.1
850	300	-0.1
900	300	-0.1
950	300	-0.1
1000	300	-0.1
1050	300	-0.1
1100	300	-0.1
1150	300	-0.1
1200	300	-0.1
1250	300	-0.1
1300	300	-0.1
1350	300	-0.1
1400	300	-0.1
1450	300	-0.1
1500	300	-0.1
1550	300	-0.1
1600	300	-0.1
1650	300	-0.1
1700	300	-0.1
1750	300	-0.1
1800	300	-0.1
1850	300	-0.1
1900	300	-0.1
1950	300	-0.1
2000	300	-0.1
0	350	-0.1
50	350	-0.1
100	350	-0.1
150	350	-0.1
200	350	-0.1
250	350	-0.1
300	350	-0.1
350	350	-0.1
400	350	-0.1
450	350	-0.1
500	350	-0.1
550	350	-0.1
600	350	-0.1
650	350	-0.1
700	350	-0.1
750	350	-0.1
800	350	-0.1
850	350	-0.1
900	350	-0.1
950	350	-0.1
1000	350	-0.1
1050	350	-0.1
1100	350	-0.1
1150	350	-0.1
1200	350	-0.1
1250	350	-0.1
1300	350	-0.1
1350	350	-0.1
1400	350	-0.1
1450	350	-0.1
1500	350	-0.1
1550	350	-0.1
1600	350	-0.1
1650	350	-0.1
1700	350	-0.1
1750	350	-0.1
1800	350	-0.1
1850	350	-0.1
1900	350	-0.1
1950	350	-0.1
2000	350	-0.1
0	400	-0.1
50	400	-0.1
100	400	-0.1
150	400	-0.1
200	400	-0.1
250	400	-0.1
300	400	-0.1
350	400	-0.1
400	400	-0.1
450	400	-0.1
500	400	-0.1
550	400	-0.1
600	400	-0.1
650	400	-0.1
700	400	-0.1
750	400	-0.1
800	400	-0.1
850	400	-0.1
900	400	-0.1
950	400	-0.1
1000	400	-0.1
1050	400	-0.1
1100	400	-0.1
1150	400	-0.1
1200	400	-0.1
1250	400	-0.1
1300	400	-0.1
1350	400	-0.1
1400	400	-0.1
1450	400	-0.1
1500	400	-0.1
1550	400	-0.1
1600	400	-0.1
1650	400	-0.1
1700	400	-0.1
1750	400	-0.1
1800	400	-0.1
1850	400	-0.1
1900	400	-0.1
1950	400	-0.1
2000	400	-0.1
0	450	-0.1
50	450	-0.1
100	450	-0.1
150	450	-0.1
200	450	-0.1
250	450	-0.1
300	450	-0.1
350	450	-0.1
400	450	-0.1
450	450	-0.1
500	450	-0.1
550	450	-0.1
600	450	-0.1
650	450	-0.1
700	450	-0.1
750	450	-0.1
800	450	-0.1
850	450	-0.1
900	450	-0.1
950	450	-0.1
1000	450	-0.1
1050	450	-0.1
1100	450	-0.1
1150	450	-0.1
1200	450	-0.1
1250	450	-0.1
1300	450	-0.1
1350	450	-0.1
1400	450	-0.1
1450	450	-0.1
1500	450	-0.1
1550	450	-0.1
1600	450	-0.1
1650	450	-0.1
1700	450	-0.1
1750	450	-0.1
1800	450	-0.1
1850	450	-0.1
1900	450	-0.1
1950	450	-0.1
2000	450	-0.1
0	500	-0.1
50	500	-0.1
100	500	-0.1
150	500	-0.1
200	500	-0.1
250	500	-0.1
300	500	-0.1
350	500	-0.1
400	500	-0.1
450	500	-0.1
500	500	-0.1
550	500	-0.1
600	500	-0.1
650	500	-0.1
700	500	-0.1
750	500	-0.1
800	500	-0.1
850	500	-0.1
900	500	-0.1
950	500	-0.1
1000	500	-0.1
1050	500	-0.1
1100	500	-0.1
1150	500	-0.1
1200	500	-0.1
1250	500	-0.1
1300	500	-0.1
1350	500	-0.1
1400	500	-0.1
1450	500	-0.1
1500	500	-0.1
1550	500	-0.1
1600	500	-0.1
1650	500	-0.1
1700	500	-0.1
1750	500	-0.1
1800	500	-0.1
1850	500	-0.1
1900	500	-0.1
1950	500	-0.1
2000	500	-0.1
0	550	-0.1
50	550	-0.1
100	550	-0.1
150	550	-0.1
200	550	-0.1
250	550	-0.1
300	550	-0.1
350	550	-0.1
400	550	-0.1
450	550	-0.1
500	550	-0.1
550	550	-0.1
600	550	-0.1
650	550	-0.1
700	550	-0.1
750	550	-0.1
800	550	-0.1
850	550	-0.1
900	550	-0.1
950	550	-0.1
1000	550	-0.1
1050	550	-0.1
1100	550	-0.1
1150	550	-0.1
1200	550	-0.1
1250	550	-0.1
1300	550	-0.1
1350	550	-0.1
1400	550	-0.1
1450	550	-0.1
1500	550	-0.1
1550	550	-0.1
1600	550	-0.1
1650	550	-0.1
1700	550	-0.1
1750	550	-0.1
1800	550	-0.1
1850	550	-0.1
1900	550	-0.1
1950	550	-0.1
2000	550	-0.1
0	600	-0.1
50	600	-0.1
100	600	-0.1
150	600	-0.1
200	600	-0.1
250	600	-0.1
300	600	-0.1
350	600	-0.1
400	600	-0.1
450	600	-0.1
500	600	-0.1
550	600	-0.1
600	600	-0.1
650	600	-0.1
700	600	-0.1
750	600	-0.1
800	600	-0.1
850	600	-0.1
900	600	-0.1
950	600	-0.1
1000	600	-0.1
1050	600	-0.1
1100	600	-0.1
1150	600	-0.1
1200	600	-0.1
1250	600	-0.1
1300	600	-0.1
1350	600	-0.1
1400	600	-0.1
1450	600	-0.1
1500	600	-0.1
1550	600	-0.1
1600	600	-0.1
1650	600	-0.1
1700	600	-0.1
1750	600	-0.1
1800	600	-0.1
1850	600	-0.1
1900	600	-0.1
1950	600	-0.1
2000	600	-0.1
0	650	-0.1
50	650	-0.1
100	650	-0.1
150	650	-0.1
200	650	-0.1
250	650	-0.1
300	650	-0.1
350	650	-0.1
400	650	-0.1
450	650	-0.1
500	650	-0.1
550	650	-0.1
600	650	-0.1
650	650	-0.1
700	650	-0.1
750	650	-0.1
800	650	-0.1
850	650	-0.1
900	650	-0.1
950	650	-0.1
1000	650	-0.1
1050	650	-0.1
1100	650	-0.1
1150	650	-0.1
1200	650	-0.1
1250	650	-0.1
1300	650	-0.1
1350	650	-0.1
1400	650	-0.1
1450	650	-0.1
1500	650	-0.1
1550	650	-0.1
1600	650	-0.1
1650	650	-0.1
1700	650	-0.1
1750	650	-0.1
1800	650	-0.1
1850	650	-0.1
1900	650	-0.1
1950	650	-0.1
2000	650	-0.1
0	700	-0.1
50	700	-0.1
100	700	-0.1
150	700	-0.1
200	700	-0.1
250	700	-0.1
300	700	-0.1
350	700	-0.1
400	700	-0.1
450	700	-0.1
500	700	-0.1
550	700	-0.1
600	700	-0.1
650	700	-0.1
700	700	-0.1
750	700	-0.1
800	700	-0.1
850	700	-0.1
900	700	-0.1
950	700	-0.1
1000	700	-0.1
1050	700	-0.1
1100	700	-0.1
1150	700	-0.1
1200	700	-0.1
1250	700	-0.1
1300	700	-0.1
1350	700	-0.1
1400	700	-0.1
1450	700	-0.1
1500	700	-0.1
1550	700	-0.1
1600	700	-0.1
1650	700	-0.1
1700	700	-0.1
1750	700	-0.1
1800	700	-0.1
1850	700	-0.1
1900	700	-0.1
1950	700	-0.1
2000	700	-0.1
0	750	-0.1
50	750	-0.1
100	750	-0.1
150	750	-0.1
200	750	-0.1
250	750	-0.1
300	750	-0.1
350	750	-0.1
400	750	-0.1
450	750	-0.1
500	750	-0.1
550	750	-0.1
600	750	-0.1
650	750	-0.1
700	750	-0.1
750	750	-0.1
800	750	-0.1
850	750	-0.1
900	750	-0.1
950	750	-0.1
1000	750	-0.1
1050	750	-0.1
1100	750	-0.1
1150	750	-0.1
1200	750	-0.1
1250	750	-0.1
1300	750	-0.1
1350	750	-0.1
1400	750	-0.1
1450	750	-0.1
1500	750	-0.1
1550	750	-0.1
1600	750	-0.1
1650	750	-0.1
1700	750	-0.1
1750	750	-0.1
1800	750	-0.1
1850	750	-0.1
1900	750	-0.1
1950	750	-0.1
2000	750	-0.1
0	800	-0.1
50	800	-0.1
100	800	-0.1
150	800	-0.1
200	800	-0.1
250	800	-0.1
300	800	-0.1
350	800	-0.1
400	800	-0.1
450	800	-0.1
500	800	-0.1
550	800	-0.1
600	800	-0.1
650	800	-0.1
700	800	-0.1
750	800	-0.1
800	800	-0.1
850	800	-0.1
900	800	-0.1
950	800	-0.1
1000	800	-0.1
1050	800	-0.1
1100	800	-0.1
1150	800	-0.1
1200	800	-0.1
1250	800	-0.1
1300	800	-0.1
1350	800	-0.1
1400	800	-0.1
1450	800	-0.1
1500	800	-0.1
1550	800	-0.1
1600	800	-0.1
1650	800	-0.1
1700	800	-0.1
1750	800	-0.1
1800	800	-0.1
1850	800	-0.1
1900	800	-0.1
1950	800	-0.1
2000	800	-0.1
0	850	-0.1
50	850	-0.1
100	850	-0.1
150	850	-0.1
200	850	-0.1
250	850	-0.1
300	850	-0.1
350	850	-0.1
400	850	-0.1
450	850	-0.1
500	850	-0.1
550	850	-0.1
600	850	-0.1
650	850	-0.1
700	850	-0.1
750	850	-0.1
800	850	-0.1
850	850	-0.1
900	850	-0.1
950	850	-0.1
1000	850	-0.1
1050	850	-0.1
1100	850	-0.1
1150	850	-0.1
1200	850	-0.1
1250	850	-0.1
1300	850	-0.1
1350	850	-0.1
1400	850	-0.1
1450	850	-0.1
1500	850	-0.1
1550	850	-0.1
1600	850	-0.1
1650	850	-0.1
1700	850	-0.1
1750	850	-0.1
1800	850	-0.1
1850	850	-0.1
1900	850	-0.1
1950	850	-0.1
2000	850	-0.1
0	900	-0.1
50	900	-0.1
100	900	-0.1
150	900	-0.1
200	900	-0.1
250	900	-0.1
300	900	-0.1
350	900	-0.1
[...]
CELL_DATA	1681
SCALARS T_zz double 1
LOOKUP_TABLE table0
-0.441926
-0.469802
-0.497393
-0.522598
-0.542371
-0.558294
-0.571949
-0.580371
-0.584271
-0.581283
-0.569905
-0.553036
-0.532233
-0.509012
-0.484608
-0.459964
-0.435488
-0.411999
-0.389736
-0.36766
-0.345607
-0.322636
-0.297786
-0.270921
-0.240953
-0.208881
-0.176023
-0.142063
-0.107559
-0.0724461
-0.0371474
-0.00339761
0.0264001
0.0514606
0.0714376
0.0851531
0.0934181
0.0968702
0.096393
0.0935125
0.0878607
-0.476218
-0.506176
-0.53613
-0.562934
-0.581122
-0.594126
-0.605394
-0.609588
-0.608915
-0.599291
-0.57794
-0.55043
-0.519442
-0.487663
-0.457354
-0.430235
-0.406901
-0.388705
-0.375843
-0.365999
-0.358582
-0.35135
-0.341898
-0.329317
-0.310531
-0.286376
-0.258325
-0.224923
-0.186971
-0.144442
-0.0983704
-0.0521926
-0.0103926
0.0259126
0.0563407
0.0784698
0.0934107
0.101602
0.103911
0.102678
0.0967322
-0.509148
-0.540338
-0.571515
-0.599296
-0.617521
-0.628621
-0.63509
-0.630975
-0.618273
-0.593128
-0.553658
-0.507076
-0.45811
-0.411469
-0.371297
-0.340969
-0.322152
-0.316285
-0.322549
-0.336918
-0.35715
-0.379718
-0.400741
-0.417149
-0.423481
-0.418639
-0.402633
-0.372945
-0.33016
-0.275334
-0.211674
-0.145193
-0.0826596
-0.0268488
0.020745
0.056973
0.0826702
0.0985124
0.10591
0.107772
0.103427
-0.538784
-0.569112
-0.599946
-0.627794
-0.64525
-0.652664
-0.650524
-0.631714
-0.597897
-0.545614
-0.474433
-0.394286
-0.313438
-0.240313
-0.182731
-0.147377
-0.138013
-0.156123
-0.19872
-0.258323
-0.329501
-0.40658
-0.483468
-0.553608
-0.607348
-0.639818
-0.647897
-0.626774
-0.576673
-0.50097
-0.407207
-0.306242
-0.208897
-0.120661
-0.0447007
0.014771
0.0582081
0.0867095
0.102581
0.109661
0.108121
-0.573721
-0.609035
-0.637831
-0.664194
-0.672937
-0.667114
-0.649932
-0.606332
-0.53652
-0.437778
-0.31216
-0.173272
-0.0342706
0.0882561
0.177998
0.222817
0.212871
0.148465
0.0387902
-0.103534
-0.264991
-0.437405
-0.612957
-0.778446
-0.916603
-1.01616
-1.06827
-1.06286
-1.00868
-0.904823
-0.758005
-0.596796
-0.432107
-0.281566
-0.158408
-0.0610686
0.0111104
0.0599676
0.0891601
0.104529
0.108458
-0.609069
-0.648533
-0.673807
-0.696192
-0.692121
-0.666449
-0.623916
-0.540102
-0.412217
-0.237056
-0.0191653
0.221968
0.463772
0.675204
0.824526
0.88812
0.846345
0.700849
0.470693
0.180716
-0.140539
-0.478587
-0.822711
-1.15214
-1.43855
-1.65718
-1.78605
-1.80628
-1.73623
-1.575
-1.33479
-1.06835
-0.792303
-0.540828
-0.339684
-0.181843
-0.0652978
0.0142235
0.0633615
0.0912256
0.103282
-0.639622
-0.675722
-0.6963
-0.711472
-0.694567
-0.645504
-0.563193
-0.417358
-0.199489
0.0981942
0.470631
0.888176
1.30882
1.67576
1.93055
2.02885
1.9388
1.65882
1.21998
0.675824
0.0829489
-0.530887
-1.15152
-1.75422
-2.29611
-2.72178
-2.97796
-3.03451
-2.91623
-2.63951
-2.24094
-1.79712
-1.3453
-0.937611
-0.610722
-0.3593
-0.177254
-0.0539918
0.0233912
0.06895
0.0916598
-0.67309
-0.706297
-0.721139
-0.725745
-0.689509
-0.606143
-0.466453
-0.230438
0.122162
0.612132
1.23992
1.95894
2.69008
3.32392
3.75144
3.90468
3.74262
3.24847
2.46078
1.49431
0.465687
-0.580751
-1.63556
-2.67969
-3.6534
-4.42956
-4.88025
-4.97205
-4.75946
-4.29012
-3.6404
-2.91634
-2.18023
-1.52027
-0.997811
-0.607525
-0.332374
-0.149162
-0.0340503
0.0349316
0.0719132
-0.702034
-0.72739
-0.735419
-0.726528
-0.669989
-0.546451
-0.330279
0.029012
0.559629
1.3231
2.36056
3.58302
4.85542
5.94731
6.72029
7.0249
6.65482
5.73812
4.44011
2.85464
1.11168
-0.631797
-2.37486
-4.13509
-5.77408
-7.0875
-8.01516
-8.32264
-7.9414
-7.16678
-5.96552
-4.65217
-3.4258
-2.32423
-1.51493
-0.929085
-0.529129
-0.268975
-0.10612
-0.00804193
0.0454441
-0.727879
-0.744729
-0.744883
-0.720446
-0.639325
-0.466766
-0.156482
0.359942
1.13051
2.27298
3.88865
5.86864
8.00766
9.82292
11.0431
11.4709
10.7759
9.24358
7.17138
4.68086
1.96513
-0.71485
-3.38486
-6.11425
-8.68618
-10.7704
-12.3168
-12.8646
-12.2128
-10.9532
-9.00875
-6.9225
-5.04046
-3.36219
-2.16909
-1.32658
-0.76724
-0.411972
-0.192105
-0.0601483
0.0124059
-0.752461
-0.764662
-0.756296
-0.715921
-0.604118
-0.373544
0.0414423
0.739057
1.80642
3.42881
5.79935
8.82689
12.2402
15.1247
16.9421
17.4688
16.6123
14.5573
11.1109
7.10674
3.12047
-0.762733
-4.67715
-8.69952
-12.7335
-16.1112
-18.5661
-19.5402
-18.4086
-16.3264
-13.1143
-9.75191
-7.00809
-4.59541
-2.93313
-1.78265
-1.03576
-0.57119
-0.28842
-0.120018
-0.0261974
-0.769556
-0.776112
-0.759559
-0.705231
-0.565983
-0.280883
0.235836
1.11263
2.48396
4.63616
7.88467
12.1173
16.9657
21.1019
23.6204
24.2278
23.1436
20.4649
15.5247
9.84327
4.40761
-0.831608
-6.16218
-11.6331
-17.2191
-21.9811
-25.5005
-27.0529
-25.4884
-22.4989
-17.8202
-12.9538
-9.17182
-5.91197
-3.72466
-2.24497
-1.30443
-0.729689
-0.384668
-0.180841
-0.0667743
-0.787354
-0.794586
-0.771518
-0.707304
-0.540914
-0.205527
0.39506
1.41788
3.08054
5.76346
9.67691
14.8187
21.0479
26.4738
30.185
31.4066
29.7363
26.1017
19.7883
12.4534
5.61683
-0.892053
-7.56448
-14.3775
-21.4534
-27.5385
-31.5971
-33.3266
-31.6842
-28.0896
-22.2817
-16.1573
-11.2582
-7.13378
-4.43842
-2.66147
-1.54846
-0.875155
-0.476799
-0.242716
-0.109512
-0.804502
-0.814418
-0.787837
-0.718673
-0.533934
-0.164054
0.493151
1.61602
3.48383
6.5151
10.773
16.4222
23.5654
29.8773
34.6416
36.4866
34.3082
30.0355
22.8697
14.3562
6.48927
-0.94759
-8.60879
-16.4196
-24.6996
-31.8755
-36.2602
-38.0508
-36.4387
-32.4779
-25.7605
-18.5806
-12.7755
-7.98563
-4.93344
-2.9577
-1.72999
-0.989628
-0.554705
-0.299344
-0.151728
-0.819633
-0.829833
-0.803694
-0.734565
-0.547384
-0.168421
0.511511
1.68228
3.60822
6.6713
11.1429
17.1583
24.6482
31.1982
36.2833
38.3432
35.3478
30.4096
23.3968
14.7495
6.62729
-1.0278
-8.95017
-17.0458
-25.5621
-32.9964
-37.3489
-38.9433
-37.7424
-33.9698
-26.8719
-19.2694
-13.1744
-8.25941
-5.10783
-3.07756
-1.81832
-1.0578
-0.609489
-0.345113
-0.191104
-0.840524
-0.855535
-0.834129
-0.77004
-0.589854
-0.222759
0.437598
1.5804
3.43886
6.34379
10.769
16.7591
24.0945
30.2972
35.2392
37.5112
34.034
28.7408
22.1726
13.9349
6.2277
-1.02855
-8.56918
-16.319
-24.5255
-31.7757
-35.8215
-37.1376
-36.4145
-33.0703
-26.0125
-18.4966
-12.6075
-7.95789
-4.95757
-3.0173
-1.8088
-1.07567
-0.641051
-0.382181
-0.228795
-0.851673
-0.862656
-0.849892
-0.795912
-0.643029
-0.319547
0.276994
1.30389
2.97905
5.58708
9.53756
14.8524
21.0547
26.1353
30.1297
31.9448
29.5167
25.3295
19.4225
12.2695
5.47809
-1.011
-7.53721
-14.3568
-21.4937
-27.7944
-31.6083
-32.8953
-32.0916
-28.9582
-22.9078
-16.4573
-11.2598
-7.20581
-4.55164
-2.81822
-1.71625
-1.03923
-0.643915
-0.404607
-0.261213
-0.859796
-0.868649
-0.867364
-0.828248
-0.711561
-0.448801
0.0516423
0.903571
2.29359
4.43457
7.61734
11.8652
16.5925
20.467
23.5821
24.9011
23.4849
20.5308
15.5753
9.88877
4.42862
-0.898777
-6.06304
-11.5694
-17.1491
-21.9537
-25.1056
-26.169
-25.3443
-22.7661
-18.3062
-13.4903
-9.35457
-6.11862
-3.94685
-2.50292
-1.55707
-0.965839
-0.627326
-0.417625
-0.289785
-0.87213
-0.891482
-0.903048
-0.882196
-0.797199
-0.59407
-0.20311
0.457942
1.51924
3.11939
5.45282
8.51124
11.9116
14.7603
17.0043
17.9141
16.8646
14.6716
11.127
7.09685
3.194
-0.655552
-4.46576
-8.52354
-12.5263
-15.8976
-18.0902
-18.8293
-18.256
-16.4605
-13.4144
-10.0787
-7.15524
-4.8411
-3.21849
-2.10732
-1.35705
-0.878792
-0.603938
-0.428306
-0.316881
-0.874109
-0.903047
-0.927442
-0.925848
-0.874127
-0.731533
-0.447559
0.0338116
0.794052
1.90629
3.48418
5.48304
7.6475
9.48528
10.8958
11.4895
10.8883
9.52457
7.41926
4.93495
2.38045
-0.165139
-2.74346
-5.43375
-7.91788
-10.0122
-11.4712
-12.0531
-11.7946
-10.6959
-8.8681
-6.83506
-5.02166
-3.57596
-2.48527
-1.70696
-1.154
-0.78818
-0.576154
-0.434892
-0.341041
-0.877307
-0.925011
-0.961278
-0.977582
-0.956862
-0.869305
-0.679793
-0.353624
0.162307
0.897631
1.89412
3.12002
4.43018
5.57806
6.50558
6.99242
6.80757
6.15468
5.0732
3.70725
2.21539
0.683744
-0.868293
-2.47546
-3.9805
-5.27263
-6.258
-6.76189
-6.76119
-6.25303
-5.29314
-4.1928
-3.19686
-2.38604
-1.75132
-1.27606
-0.932129
-0.696565
-0.544282
-0.436482
-0.361857
-0.87525
-0.941244
-0.988106
-1.01954
-1.02452
-0.98231
-0.869731
-0.667172
-0.337581
0.129079
0.730755
1.46329
2.27194
3.03492
3.62718
4.01897
4.15812
4.05894
3.81524
3.36649
2.73215
1.99446
1.21898
0.390924
-0.494518
-1.28443
-1.94274
-2.38677
-2.57009
-2.5273
-2.27519
-1.93333
-1.60048
-1.31025
-1.06483
-0.860735
-0.712981
-0.603591
-0.51032
-0.436265
-0.381344
-0.86291
-0.937544
-0.993885
-1.03687
-1.06029
-1.05163
-0.997372
-0.886891
-0.690618
-0.403605
-0.0298614
0.434793
0.971911
1.54051
2.09847
2.63292
3.08919
3.49933
3.93609
4.21271
4.31504
4.23814
4.04352
3.77819
3.28463
2.77613
2.29982
1.82318
1.33944
0.866901
0.483597
0.141033
-0.133125
-0.326827
-0.444235
-0.495002
-0.514227
-0.508062
-0.476304
-0.437665
-0.401758
-0.855095
-0.939825
-1.00478
-1.05513
-1.08905
-1.10199
-1.08875
-1.04417
-0.939983
-0.768479
-0.52728
-0.200235
0.218234
0.729342
1.34288
2.09175
2.95313
3.94861
5.09816
6.11214
6.97271
7.5529
7.87293
8.05715
7.81758
7.42961
6.96108
6.31912
5.47614
4.46593
3.41552
2.34066
1.40412
0.684156
0.18862
-0.119871
-0.308494
-0.409166
-0.441869
-0.439962
-0.423098
-0.837081
-0.91786
-0.990393
-1.0441
-1.09482
-1.13234
-1.14568
-1.14675
-1.0917
-0.97923
-0.809781
-0.540282
-0.156384
0.382508
1.18123
2.2749
3.76017
5.56552
7.78141
9.89211
11.6798
13.0559
13.8098
14.2738
14.21
13.8314
13.348
12.5874
10.9754
9.01774
6.97469
4.7936
3.08026
1.75343
0.827035
0.243479
-0.113164
-0.315651
-0.412772
-0.446773
-0.44696
-0.8185
-0.893872
-0.972144
-1.02672
-1.09032
-1.14593
-1.17536
-1.20631
-1.17829
-1.09568
-0.961117
-0.704222
-0.301117
0.331046
1.39184
2.90005
5.06
7.72687
11.056
14.3101
17.1119
19.3545
20.5232
21.1677
21.0881
20.5157
19.9398
19.0938
16.7888
13.9399
10.8837
7.50934
4.90292
2.86845
1.45998
0.587091
0.0640232
-0.234468
-0.390621
-0.456786
-0.471813
-0.80801
-0.888912
-0.970293
-1.02499
-1.08783
-1.14587
-1.18468
-1.23297
-1.22792
-1.16837
-1.04838
-0.785048
-0.342894
0.4117
1.66454
3.49285
6.43395
10.0565
14.8861
19.6571
23.3814
26.4057
28.0568
28.9169
29.0326
28.4881
27.4484
26.2709
23.2462
19.4638
15.1919
10.3635
6.76639
3.91879
2.03178
0.886988
0.211259
-0.172736
-0.376346
-0.468025
-0.495652
-0.788725
-0.870227
-0.95197
-1.00685
-1.07044
-1.13099
-1.17489
-1.23086
-1.23526
-1.1852
-1.07064
-0.799897
-0.330384
0.512639
1.89339
3.95711
7.57014
11.9466
17.9882
24.0221
28.5004
32.2007
34.2594
35.2544
35.5025
34.9865
33.5241
32.0585
28.3829
23.8211
18.5448
12.4809
8.12198
4.65913
2.42202
1.08163
0.300013
-0.140693
-0.374804
-0.482944
-0.519168
-0.764456
-0.843422
-0.923314
-0.978293
-1.04433
-1.10814
-1.15435
-1.21168
-1.22373
-1.18265
-1.07205
-0.803141
-0.319353
0.547334
1.99323
4.20516
8.04628
12.5865
18.9204
25.3577
29.8232
33.5048
35.8523
36.9368
37.2571
36.822
35.0015
33.1773
29.6278
25.2584
19.7006
13.1976
8.5493
4.88458
2.54374
1.13627
0.314389
-0.148763
-0.393146
-0.50717
-0.545233
-0.739343
-0.813761
-0.890401
-0.944919
-1.0133
-1.07995
-1.1271
-1.18349
-1.20087
-1.16824
-1.06592
-0.813479
-0.351415
0.460711
1.82591
3.96078
7.72535
12.0817
18.3811
24.894
28.949
32.2287
34.6215
35.7265
36.2566
36.1237
34.0825
31.9497
28.5279
24.4339
18.9298
12.4946
8.05232
4.57593
2.37765
1.04008
0.251164
-0.195779
-0.429967
-0.539014
-0.57332
-0.715527
-0.783932
-0.856505
-0.909747
-0.979094
-1.04741
-1.09554
-1.15218
-1.17095
-1.14453
-1.05786
-0.836604
-0.433505
0.266764
1.43593
3.26913
6.36741
9.9802
14.8706
20.0254
23.5385
26.3085
28.2471
29.06
29.478
29.367
27.8814
26.2069
23.213
19.6045
15.3399
10.4188
6.72469
3.84867
1.9754
0.815727
0.122523
-0.27305
-0.479721
-0.574291
-0.601386
-0.693083
-0.754853
-0.822715
-0.874071
-0.943905
-1.01388
-1.06404
-1.12361
-1.14817
-1.13349
-1.06913
-0.888696
-0.559924
0.00559597
0.93728
2.37143
4.631
7.31884
10.6289
14.18
16.8291
18.8448
20.2626
20.8299
21.2152
21.2081
20.3757
19.2813
16.8346
13.8176
10.96
7.78311
5.03263
2.89268
1.43699
0.514462
-0.0477446
-0.371603
-0.539107
-0.612565
-0.628759
-0.674629
-0.733688
-0.796371
-0.845739
-0.908731
-0.97335
-1.0266
-1.091
-1.11949
-1.11515
-1.0765
-0.940509
-0.697416
-0.276565
0.41747
1.45371
3.0372
4.94097
7.23328
9.68399
11.5197
12.9042
13.9848
14.4945
14.7578
14.7431
14.1317
13.25
11.6203
9.551
7.47986
5.2926
3.39348
1.90207
0.862587
0.1852
-0.23156
-0.470963
-0.594178
-0.643358
-0.649535
-0.654062
-0.709981
-0.767505
-0.815417
-0.87238
-0.932314
-0.988768
-1.05747
-1.08895
-1.09406
-1.0805
-0.988025
-0.826896
-0.538944
-0.0536301
0.644418
1.64775
2.86757
4.21562
5.63367
6.75562
7.60616
8.39706
8.84109
8.90071
8.768
8.3006
7.61061
6.85931
5.82266
4.51074
3.17581
1.97994
1.02494
0.338503
-0.122304
-0.404655
-0.563056
-0.642674
-0.667555
-0.663692
-0.625293
-0.673177
-0.726008
-0.773674
-0.833704
-0.897414
-0.956259
-1.02616
-1.06041
-1.07457
-1.08218
-1.02979
-0.93614
-0.755539
-0.436984
0.00935594
0.625903
1.37479
2.19946
3.04452
3.71277
4.23298
4.74288
5.05829
5.11952
5.04615
4.77785
4.35443
3.86184
3.20541
2.41385
1.62712
0.916335
0.338735
-0.0846828
-0.374614
-0.550102
-0.643402
-0.684415
-0.687423
-0.672193
-0.591318
-0.630601
-0.679189
-0.728267
-0.793643
-0.862566
-0.922737
-0.989436
-1.0195
-1.03536
-1.05842
-1.04165
-1.00833
-0.917291
-0.72525
-0.453586
-0.102677
0.323454
0.784232
1.24645
1.68139
2.03981
2.32852
2.51344
2.55675
2.50672
2.38657
2.171
1.86615
1.47648
1.0265
0.582282
0.17714
-0.155143
-0.398279
-0.564254
-0.658562
-0.700709
-0.710692
-0.695937
-0.671585
-0.565844
-0.608961
-0.653575
-0.705233
-0.758984
-0.815462
-0.875904
-0.935678
-0.980046
-1.0155
-1.04817
-1.06145
-1.04929
-1.00003
-0.901424
-0.747996
-0.554666
-0.31915
-0.0566364
0.202536
0.44566
0.650618
0.821142
0.937767
0.976093
0.955485
0.885782
0.761455
0.592322
0.381261
0.140167
-0.0976365
-0.313754
-0.489649
-0.615767
-0.6976
-0.73562
-0.741721
-0.729019
-0.70131
-0.666343
-0.541152
-0.589122
-0.630135
-0.683891
-0.724848
-0.767413
-0.826669
-0.878058
-0.934911
-0.98713
-1.02476
-1.06048
-1.05741
-1.03142
-0.998373
-0.922691
-0.831339
-0.714734
-0.565266
-0.419339
-0.286592
-0.172528
-0.0812372
-0.0169506
0.0147201
0.013974
-0.0173707
-0.0780039
-0.168264
-0.279048
-0.397233
-0.513509
-0.616223
-0.696336
-0.749684
-0.77744
-0.778623
-0.76088
-0.732977
-0.696788
-0.653801
-0.510769
-0.553608
-0.591709
-0.645381
-0.687939
-0.731059
-0.787135
-0.830961
-0.878271
-0.923944
-0.963229
-1.01181
-1.0329
-1.04041
-1.04839
-1.02112
-0.986188
-0.934011
-0.855035
-0.779502
-0.709852
-0.649389
-0.600896
-0.564304
-0.542475
-0.535813
-0.543467
-0.564753
-0.601574
-0.647734
-0.695282
-0.741629
-0.780745
-0.806697
-0.81638
-0.81096
-0.788627
-0.755396
-0.7181
-0.676949
-0.632167
-0.490551
-0.531942
-0.567986
-0.618847
-0.657829
-0.696586
-0.74748
-0.785526
-0.827295
-0.869074
-0.907532
-0.959331
-0.988472
-1.00987
-1.03856
-1.03903
-1.03806
-1.02432
-0.986016
-0.950741
-0.918354
-0.890346
-0.86788
-0.849019
-0.835335
-0.826838
-0.822805
-0.823195
-0.831129
-0.842188
-0.85113
-0.858835
-0.862357
-0.857608
-0.84224
-0.817586
-0.781552
-0.739399
-0.696927
-0.653329
-0.608038
-0.469141
-0.502823
-0.537437
-0.58343
-0.625835
-0.667507
-0.711931
-0.745774
-0.778836
-0.812458
-0.848227
-0.895908
-0.935939
-0.971705
-1.0066
-1.02112
-1.02958
-1.02872
-1.01494
-1.00316
-0.993133
-0.984774
-0.977661
-0.970056
-0.962402
-0.954686
-0.946567
-0.937993
-0.930708
-0.923037
-0.912899
-0.900862
-0.885239
-0.86375
-0.835204
-0.800533
-0.759187
-0.714431
-0.669843
-0.625607
-0.581747

POINT_DATA	1681
SCALARS T_zz double 1
LOOKUP_TABLE table0
-0.441926
-0.469802
-0.497393
-0.522598
-0.542371
-0.558294
-0.571949
-0.580371
-0.584271
-0.581283
-0.569905
-0.553036
-0.532233
-0.509012
-0.484608
-0.459964
-0.435488
-0.411999
-0.389736
-0.36766
-0.345607
-0.322636
-0.297786
-0.270921
-0.240953
-0.208881
-0.176023
-0.142063
-0.107559
-0.0724461
-0.0371474
-0.00339761
0.0264001
0.0514606
0.0714376
0.0851531
0.0934181
0.0968702
0.096393
0.0935125
0.0878607
-0.476218
-0.506176
-0.53613
-0.562934
-0.581122
-0.594126
-0.605394
-0.609588
-0.608915
-0.599291
-0.57794
-0.55043
-0.519442
-0.487663
-0.457354
-0.430235
-0.406901
-0.388705
-0.375843
-0.365999
-0.358582
-0.35135
-0.341898
-0.329317
-0.310531
-0.286376
-0.258325
-0.224923
-0.186971
-0.144442
-0.0983704
-0.0521926
-0.0103926
0.0259126
0.0563407
0.0784698
0.0934107
0.101602
0.103911
0.102678
0.0967322
-0.509148
-0.540338
-0.571515
-0.599296
-0.617521
-0.628621
-0.63509
-0.630975
-0.618273
-0.593128
-0.553658
-0.507076
-0.45811
-0.411469
-0.371297
-0.340969
-0.322152
-0.316285
-0.322549
-0.336918
-0.35715
-0.379718
-0.400741
-0.417149
-0.423481
-0.418639
-0.402633
-0.372945
-0.33016
-0.275334
-0.211674
-0.145193
-0.0826596
-0.0268488
0.020745
0.056973
0.0826702
0.0985124
0.10591
0.107772
0.103427
-0.538784
-0.569112
-0.599946
-0.627794
-0.64525
-0.652664
-0.650524
-0.631714
-0.597897
-0.545614
-0.474433
-0.394286
-0.313438
-0.240313
-0.182731
-0.147377
-0.138013
-0.156123
-0.19872
-0.258323
-0.329501
-0.40658
-0.483468
-0.553608
-0.607348
-0.639818
-0.647897
-0.626774
-0.576673
-0.50097
-0.407207
-0.306242
-0.208897
-0.120661
-0.0447007
0.014771
0.0582081
0.0867095
0.102581
0.109661
0.108121
-0.573721
-0.609035
-0.637831
-0.664194
-0.672937
-0.667114
-0.649932
-0.606332
-0.53652
-0.437778
-0.31216
-0.173272
-0.0342706
0.0882561
0.177998
0.222817
0.212871
0.148465
0.0387902
-0.103534
-0.264991
-0.437405
-0.612957
-0.778446
-0.916603
-1.01616
-1.06827
-1.06286
-1.00868
-0.904823
-0.758005
-0.596796
-0.432107
-0.281566
-0.158408
-0.0610686
0.0111104
0.0599676
0.0891601
0.104529
0.108458
-0.609069
-0.648533
-0.673807
-0.696192
-0.692121
-0.666449
-0.623916
-0.540102
-0.412217
-0.237056
-0.0191653
0.221968
0.463772
0.675204
0.824526
0.88812
0.846345
0.700849
0.470693
0.180716
-0.140539
-0.478587
-0.822711
-1.15214
-1.43855
-1.65718
-1.78605
-1.80628
-1.73623
-1.575
-1.33479
-1.06835
-0.792303
-0.540828
-0.339684
-0.181843
-0.0652978
0.0142235
0.0633615
0.0912256
0.103282
-0.639622
-0.675722
-0.6963
-0.711472
-0.694567
-0.645504
-0.563193
-0.417358
-0.199489
0.0981942
0.470631
0.888176
1.30882
1.67576
1.93055
2.02885
1.9388
1.65882
1.21998
0.675824
0.0829489
-0.530887
-1.15152
-1.75422
-2.29611
-2.72178
-2.97796
-3.03451
-2.91623
-2.63951
-2.24094
-1.79712
-1.3453
-0.937611
-0.610722
-0.3593
-0.177254
-0.0539918
0.0233912
0.06895
0.0916598
-0.67309
-0.706297
-0.721139
-0.725745
-0.689509
-0.606143
-0.466453
-0.230438
0.122162
0.612132
1.23992
1.95894
2.69008
3.32392
3.75144
3.90468
3.74262
3.24847
2.46078
1.49431
0.465687
-0.580751
-1.63556
-2.67969
-3.6534
-4.42956
-4.88025
-4.97205
-4.75946
-4.29012
-3.6404
-2.91634
-2.18023
-1.52027
-0.997811
-0.607525
-0.332374
-0.149162
-0.0340503
0.0349316
0.0719132
-0.702034
-0.72739
-0.735419
-0.726528
-0.669989
-0.546451
-0.330279
0.029012
0.559629
1.3231
2.36056
3.58302
4.85542
5.94731
6.72029
7.0249
6.65482
5.73812
4.44011
2.85464
1.11168
-0.631797
-2.37486
-4.13509
-5.77408
-7.0875
-8.01516
-8.32264
-7.9414
-7.16678
-5.96552
-4.65217
-3.4258
-2.32423
-1.51493
-0.929085
-0.529129
-0.268975
-0.10612
-0.00804193
0.0454441
-0.727879
-0.744729
-0.744883
-0.720446
-0.639325
-0.466766
-0.156482
0.359942
1.13051
2.27298
3.88865
5.86864
8.00766
9.82292
11.0431
11.4709
10.7759
9.24358
7.17138
4.68086
1.96513
-0.71485
-3.38486
-6.11425
-8.68618
-10.7704
-12.3168
-12.8646
-12.2128
-10.9532
-9.00875
-6.9225
-5.04046
-3.36219
-2.16909
-1.32658
-0.76724
-0.411972
-0.192105
-0.0601483
0.0124059
-0.752461
-0.764662
-0.756296
-0.715921
-0.604118
-0.373544
0.0414423
0.739057
1.80642
3.42881
5.79935
8.82689
12.2402
15.1247
16.9421
17.4688
16.6123
14.5573
11.1109
7.10674
3.12047
-0.762733
-4.67715
-8.69952
-12.7335
-16.1112
-18.5661
-19.5402
-18.4086
-16.3264
-13.1143
-9.75191
-7.00809
-4.59541
-2.93313
-1.78265
-1.03576
-0.57119
-0.28842
-0.120018
-0.0261974
-0.769556
-0.776112
-0.759559
-0.705231
-0.565983
-0.280883
0.235836
1.11263
2.48396
4.63616
7.88467
12.1173
16.9657
21.1019
23.6204
24.2278
23.1436
20.4649
15.5247
9.84327
4.40761
-0.831608
-6.16218
-11.6331
-17.2191
-21.9811
-25.5005
-27.0529
-25.4884
-22.4989
-17.8202
-12.9538
-9.17182
-5.91197
-3.72466
-2.24497
-1.30443
-0.729689
-0.384668
-0.180841