# vtk DataFile Version 3.0
Gravity inversion using rectangular prisms
ASCII
DATASET UNSTRUCTURED_GRID

POINTS	6070	double
0	0	0
0	0	200
0	0	400
0	0	600
0	0	800
0	0	1000
0	200	0
0	200	200
0	200	400
0	200	600
0	200	800
0	200	1000
0	400	0
0	400	200
0	400	400
0	400	600
0	400	800
0	400	1000
0	600	0
0	600	200
0	600	400
0	600	600
0	600	800
0	600	1000
0	800	0
0	800	200
0	800	400
0	800	600
0	800	800
0	800	1000
0	1000	0
0	1000	200
0	1000	400
0	1000	600
0	1000	800
0	1000	1000
0	1200	0
0	1200	200
0	1200	400
0	1200	500
0	1200	600
0	1200	800
0	1200	1000
0	1300	400
0	1300	500
0	1300	600
0	1400	0
0	1400	200
0	1400	400
0	1400	500
0	1400	600
0	1400	800
0	1400	1000
0	1600	0
0	1600	200
0	1600	400
0	1600	600
0	1600	800
0	1600	1000
0	1800	0
0	1800	200
0	1800	400
0	1800	600
0	1800	800
0	1800	1000
0	2000	0
0	2000	200
0	2000	400
0	2000	600
0	2000	800
0	2000	1000
100	1200	400
100	1200	500
100	1200	600
100	1300	400
100	1300	500
100	1300	600
100	1400	400
100	1400	500
100	1400	600
200	0	0
200	0	200
200	0	400
200	0	600
200	0	800
200	0	1000
200	200	0
200	200	200
200	200	400
200	200	600
200	200	800
200	200	1000
200	400	0
200	400	200
200	400	400
200	400	600
200	400	800
200	400	1000
200	600	0
200	600	200
200	600	400
200	600	600
200	600	800
200	600	1000
200	800	0
200	800	200
200	800	400
200	800	600
200	800	800
200	800	1000
200	1000	0
200	1000	200
200	1000	400
200	1000	600
200	1000	800
200	1000	1000
200	1200	0
200	1200	200
200	1200	400
200	1200	500
200	1200	600
200	1200	800
200	1200	1000
200	1300	400
200	1300	500
200	1300	600
200	1400	0
200	1400	200
200	1400	400
200	1400	500
200	1400	600
200	1400	800
200	1400	1000
200	1600	0
200	1600	200
200	1600	400
200	1600	600
200	1600	800
200	1600	1000
200	1800	0
200	1800	200
200	1800	400
200	1800	600
200	1800	800
200	1800	1000
200	2000	0
200	2000	200
200	2000	400
200	2000	600
200	2000	800
200	2000	1000
400	0	0
400	0	200
400	0	400
400	0	600
400	0	800
400	0	1000
400	200	0
400	200	200
400	200	400
400	200	600
400	200	800
400	200	1000
400	400	0
400	400	100
400	400	200
400	400	300
400	400	400
400	400	500
400	400	600
400	400	800
400	400	1000
400	500	0
400	500	100
400	500	200
400	500	300
400	500	400
400	500	500
400	500	600
400	600	0
400	600	100
400	600	200
400	600	300
400	600	400
400	600	500
400	600	600
400	600	700
400	600	800
400	600	1000
400	700	0
400	700	100
400	700	200
400	700	300
400	700	400
400	700	500
400	700	600
400	700	700
400	700	800
400	800	0
400	800	100
400	800	200
400	800	300
400	800	400
400	800	500
400	800	600
400	800	700
400	800	800
400	800	1000
400	900	0
400	900	100
400	900	200
400	900	300
400	900	400
400	900	500
400	900	600
400	1000	0
400	1000	100
400	1000	200
400	1000	300
400	1000	400
400	1000	500
400	1000	600
400	1000	800
400	1000	1000
400	1200	0
400	1200	200
400	1200	400
400	1200	600
400	1200	800
400	1200	1000
400	1400	0
400	1400	200
400	1400	400
400	1400	600
400	1400	800
400	1400	1000
400	1600	0
400	1600	200
400	1600	400
400	1600	600
400	1600	800
400	1600	1000
400	1800	0
400	1800	200
400	1800	400
400	1800	600
400	1800	800
400	1800	1000
400	2000	0
400	2000	200
400	2000	400
400	2000	600
400	2000	800
400	2000	1000
500	400	0
500	400	100
500	400	200
500	400	300
500	400	400
500	400	500
500	400	600
500	500	0
500	500	100
500	500	200
500	500	250
500	500	300
500	500	350
500	500	400
500	500	450
500	500	500
500	500	600
500	550	200
500	550	250
500	550	300
500	550	350
500	550	400
500	550	450
500	550	500
500	600	0
500	600	100
500	600	150
500	600	200
500	600	250
500	600	300
500	600	350
500	600	400
500	600	450
500	600	500
500	600	550
500	600	600
500	600	700
500	600	800
500	650	100
500	650	150
500	650	200
500	650	250
500	650	300
500	650	350
500	650	400
500	650	450
500	650	500
500	650	550
500	650	600
500	700	0
500	700	100
500	700	150
500	700	200
500	700	250
500	700	300
500	700	350
500	700	400
500	700	450
500	700	500
500	700	550
500	700	600
500	700	700
500	700	800
500	750	100
500	750	150
500	750	200
500	750	250
500	750	300
500	750	350
500	750	400
500	750	450
500	750	500
500	750	550
500	750	600
500	800	0
500	800	100
500	800	150
500	800	200
500	800	250
500	800	300
500	800	350
500	800	400
500	800	450
500	800	500
500	800	550
500	800	600
500	800	700
500	800	800
500	850	200
500	850	250
500	850	300
500	850	350
500	850	400
500	850	450
500	850	500
500	900	0
500	900	100
500	900	200
500	900	250
500	900	300
500	900	350
500	900	400
500	900	450
500	900	500
500	900	600
500	1000	0
500	1000	100
500	1000	200
500	1000	300
500	1000	400
500	1000	500
500	1000	600
550	500	200
550	500	250
550	500	300
550	500	350
550	500	400
550	500	450
550	500	500
550	550	200
550	550	250
550	550	300
550	550	350
550	550	400
550	550	450
550	550	500
550	600	100
550	600	150
550	600	200
550	600	250
550	600	300
550	600	350
550	600	400
550	600	450
550	600	500
550	600	550
550	600	600
550	650	100
550	650	150
550	650	200
550	650	250
550	650	300
550	650	350
550	650	400
550	650	450
550	650	500
550	650	550
550	650	600
550	700	100
550	700	150
550	700	200
550	700	250
550	700	300
550	700	350
550	700	400
550	700	450
550	700	500
550	700	550
550	700	600
550	750	100
550	750	150
550	750	200
550	750	250
550	750	300
550	750	350
550	750	400
550	750	450
550	750	500
550	750	550
550	750	600
550	800	100
550	800	150
550	800	200
550	800	250
550	800	300
550	800	350
550	800	400
550	800	450
550	800	500
550	800	550
550	800	600
550	850	200
550	850	250
550	850	300
550	850	350
550	850	400
550	850	450
550	850	500
550	900	200
550	900	250
550	900	300
550	900	350
550	900	400
550	900	450
550	900	500
600	0	0
600	0	200
600	0	400
600	0	600
600	0	800
600	0	1000
600	200	0
600	200	200
600	200	300
600	200	400
600	200	600
600	200	800
600	200	1000
600	300	200
600	300	300
600	300	400
600	400	0
600	400	100
600	400	200
600	400	250
600	400	300
600	400	350
600	400	400
600	400	500
600	400	600
600	400	700
600	400	800
600	400	1000
600	450	200
600	450	250
600	450	300
600	450	350
600	450	400
600	500	0
600	500	100
600	500	150
600	500	200
600	500	250
600	500	300
600	500	350
600	500	400
600	500	450
600	500	500
600	500	550
600	500	600
600	500	700
600	500	800
600	550	100
600	550	150
600	550	200
600	550	250
600	550	300
600	550	350
600	550	400
600	550	450
600	550	500
600	550	550
600	550	600
600	600	0
600	600	100
600	600	150
600	600	200
600	600	250
600	600	300
600	600	350
600	600	400
600	600	450
600	600	500
600	600	550
600	600	600
600	600	700
600	600	800
600	600	900
600	600	1000
600	650	100
600	650	150
600	650	200
600	650	250
600	650	300
600	650	350
600	650	400
600	650	450
600	650	500
600	650	550
600	650	600
600	700	0
600	700	100
600	700	150
600	700	200
600	700	250
600	700	300
600	700	350
600	700	400
600	700	450
600	700	500
600	700	550
600	700	600
600	700	700
600	700	800
600	700	900
600	700	1000
600	750	100
600	750	150
600	750	200
600	750	250
600	750	300
600	750	350
600	750	400
600	750	450
600	750	500
600	750	550
600	750	600
600	800	0
600	800	100
600	800	150
600	800	200
600	800	250
600	800	300
600	800	350
600	800	400
600	800	450
600	800	500
600	800	550
600	800	600
600	800	700
600	800	800
600	800	900
600	800	1000
600	850	100
600	850	150
600	850	200
600	850	250
600	850	300
600	850	350
600	850	400
600	850	450
600	850	500
600	850	550
600	850	600
600	900	0
600	900	100
600	900	150
600	900	200
600	900	250
600	900	300
600	900	350
600	900	400
600	900	450
600	900	500
600	900	550
600	900	600
600	900	700
600	900	800
600	950	200
600	950	250
600	950	300
600	950	350
600	950	400
600	950	450
600	950	500
600	950	550
600	950	600
600	1000	0
600	1000	100
600	1000	200
600	1000	250
600	1000	300
600	1000	350
600	1000	400
600	1000	450
600	1000	500
600	1000	550
600	1000	600
600	1000	700
600	1000	800
600	1000	1000
600	1100	200
600	1100	300
600	1100	400
600	1100	500
600	1100	600
600	1200	0
600	1200	100
600	1200	200
600	1200	300
600	1200	400
600	1200	500
600	1200	600
600	1200	800
600	1200	1000
600	1300	0
600	1300	100
600	1300	200
600	1300	300
600	1300	400
600	1300	500
600	1300	600
600	1400	0
600	1400	100
600	1400	200
600	1400	300
600	1400	400
600	1400	500
600	1400	600
600	1400	800
600	1400	1000
600	1500	200
600	1500	300
600	1500	400
600	1600	0
600	1600	200
600	1600	300
600	1600	400
600	1600	600
600	1600	800
600	1600	1000
600	1800	0
600	1800	200
600	1800	400
600	1800	600
600	1800	800
600	1800	1000
600	2000	0
600	2000	200
600	2000	400
600	2000	600
600	2000	800
600	2000	1000
650	400	200
650	400	250
650	400	300
650	400	350
650	400	400
650	450	200
650	450	250
650	450	300
650	450	350
650	450	400
650	500	100
650	500	150
650	500	200
650	500	250
650	500	300
650	500	350
650	500	400
650	500	450
650	500	500
650	500	550
650	500	600
650	550	100
650	550	150
650	550	200
650	550	250
650	550	300
650	550	350
650	550	400
650	550	450
650	550	500
650	550	550
650	550	600
650	600	100
650	600	150
650	600	200
650	600	250
650	600	300
650	600	350
650	600	400
650	600	450
650	600	500
650	600	550
650	600	600
650	650	100
650	650	150
650	650	200
650	650	250
650	650	300
650	650	350
650	650	400
650	650	450
650	650	500
650	650	550
650	650	600
650	700	100
650	700	150
650	700	200
650	700	250
650	700	300
650	700	350
650	700	400
650	700	450
650	700	500
650	700	550
650	700	600
650	750	100
650	750	150
650	750	200
650	750	250
650	750	300
650	750	350
650	750	400
650	750	450
650	750	500
650	750	550
650	750	600
650	800	100
650	800	150
650	800	200
650	800	250
650	800	300
650	800	350
650	800	400
650	800	450
650	800	500
650	800	550
650	800	600
650	850	100
650	850	150
650	850	200
650	850	250
650	850	300
650	850	350
650	850	400
650	850	450
650	850	500
650	850	550
650	850	600
650	900	100
650	900	150
650	900	200
650	900	250
650	900	300
650	900	350
650	900	400
650	900	450
650	900	500
650	900	550
650	900	600
650	950	200
650	950	250
650	950	300
650	950	350
650	950	400
650	950	450
650	950	500
650	950	550
650	950	600
650	1000	200
650	1000	250
650	1000	300
650	1000	350
650	1000	400
650	1000	450
650	1000	500
650	1000	550
650	1000	600
700	200	200
700	200	300
700	200	400
700	300	200
700	300	300
700	300	400
700	400	0
700	400	100
700	400	200
700	400	250
700	400	300
700	400	350
700	400	400
700	400	500
700	400	600
700	400	700
700	400	800
700	450	200
700	450	250
700	450	300
700	450	350
700	450	400
700	500	0
[...]
CELL_DATA	4546
SCALARS model double 1
LOOKUP_TABLE table0
-0.0165741
-0.556801
5.05554
-0.174439
-3.14977
-0.0832639
1.7071
-0.830394
-4.18614
-5.62011
-0.032887
1.28163
-4.34641
-7.92735
-8.25386
-0.073123
3.87407
-8.74451
-13.1021
-11.4226
-0.00559336
2.1905
-9.45716
-14.6431
-11.6514
0.0399481
0.883847
-1.20596
-7.58999
-7.65349
0.0600641
-4.55095
20.9522
20.943
24.4468
21.8114
19.5458
23.293
17.2104
23.2566
-2.16161
-4.2932
0.0765592
-2.19006
10.9074
-3.48761
-3.41601
-0.0116862
-0.943658
1.30551
-4.9224
-3.72241
-0.0866845
2.46283
-2.40022
-0.483101
-0.811096
-0.0216155
0.651563
-3.93771
-6.49559
-7.28366
-8.22992e-05
-0.707756
-3.90582
-5.86224
-5.72921
0.0275311
-2.48173
-5.13001
-4.8831
-2.95211
0.0351859
-5.39025
-5.41016
-4.052
-0.999538
0.044371
-2.87958
-8.39591
-9.05348
-4.38901
0.0561198
-1.1923
-10.9333
-11.4783
-6.19959
-0.0195509
2.46021
-10.6093
-8.06735
-4.70583
0.00972124
-0.0408356
-7.00724
-5.79684
-3.90142
-0.0405036
3.46112
-7.91935
-5.94012
-3.93372
0.0219922
-0.601524
-5.44066
-5.17683
-2.82796
-0.00274653
-0.205915
-2.65
-5.40695
-6.13047
-0.0355885
-1.69562
-3.9798
-4.39639
-2.69792
0.0101869
0.0997601
0.282508
-0.101534
0.498608
3.80467
1.32567
6.47961
-3.7084
-1.69804
-1.78122
-0.924766
-0.914209
0.391198
42.251
50.0767
47.0753
62.6383
46.2172
63.0058
91.1576
126.925
21.6027
4.76936
70.7296
50.3159
72.9517
53.3901
116.324
104.501
0.15095
0.163839
1.02842
0.909386
0.861629
1.15897
3.56948
3.47771
14.5971
7.5802
14.2225
7.63054
47.6175
25.4718
3.08373
4.18577
7.19938
0.297595
0.936157
0.112189
0.185293
1.98901
9.56491
24.3283
-7.89489
25.5704
53.5669
86.207
46.1391
90.8941
3.43365
-6.33935
25.3974
13.4289
34.4674
43.9415
89.0094
45.1345
84.4982
3.22844
24.8334
-0.293973
26.0563
60.0081
80.4534
65.5645
90.6813
107.387
134.622
112.762
149.568
85.4828
72.1182
103.214
101.018
151.014
144.27
172.356
169.176
64.4611
88.177
57.6351
73.4462
112.14
151.815
99.2061
128.369
104.927
103.337
87.9071
73.9272
175.475
171.377
152.027
148.969
26.4494
25.7026
26.9207
26.1978
61.7066
40.0503
99.1223
71.9212
116.506
86.3131
156.102
120.684
34.0354
32.821
45.1183
38.8899
56.0878
46.6166
74.5422
56.6881
101.666
75.7944
69.5597
53.5987
159.532
125.873
122.824
96.3478
47.8618
41.0485
41.708
38.6067
81.1864
62.1405
69.62
57.5017
20.5862
20.7617
20.9669
21.2207
21.1232
21.1898
21.5537
21.6949
19.1513
0.217428
-0.445129
0.00850582
0.291416
1.31457
13.4092
0.148952
2.21218
-1.39977
-2.10968
-5.13046
-5.07802
41.7657
42.498
35.0977
30.6026
89.5058
97.9147
49.2531
45.1914
58.8567
44.0564
9.93809
1.35215
109.453
99.5
56.0804
45.9263
-11.6193
-9.09089
0.380965
0.51364
-1.51359
-1.00867
13.9417
8.88065
-0.158676
0.767719
47.3695
30.9172
13.5258
10.5162
3.35735
-2.05455
-0.204505
5.41452
10.0164
0.0149613
-4.90748
-11.0768
-5.19805
1.10615
0.144057
-7.42797
-4.84579
-2.91245
-0.179063
0.0487405
-1.76124
-2.1364
-1.86609
-0.535636
0.10445
-3.47403
-2.75606
-2.28385
-1.10677
-0.0637496
2.8836
-3.97996
-2.47816
-0.919683
0.0363273
-1.4018
-4.02846
-5.58136
-4.15492
-0.00114811
-4.79613
-4.95464
-5.39006
-5.25849
-5.86814
-5.33833
-6.23149
-5.31237
-4.78609
-2.15029
1.26179
0.753159
9.19543
3.58438
47.5539
50.6408
64.8986
103.544
53.1224
78.2273
75.0314
130.723
1.20613
9.49775
7.56864
49.7728
82.6111
76.9585
134.071
44.0184
79.8773
70.8259
126.45
-1.07206
10.6831
18.9326
22.7397
4.04328
15.5292
49.0224
47.443
61.1192
63.7802
60.7876
64.0111
62.1321
66.5233
72.9695
76.2528
72.3771
91.4503
121.504
145.979
100.349
114.709
147.439
178.124
104.122
86.5103
161.849
151.33
128.699
129.4
197.323
189.415
8.17069
29.2311
55.1772
70.8858
1.23838
25.3269
52.6164
73.7372
66.9655
73.299
86.5954
89.7445
60.9833
69.9004
88.1931
92.7513
110.975
132.888
159.301
196.801
107.928
131.42
155.834
194.757
147.007
146.575
214.018
198.023
149.476
148.618
211.756
201.53
43.2308
41.8107
73.2405
49.5027
121.358
92.3947
118.354
92.458
160.768
126.992
46.2623
44.8522
64.1297
55.3917
61.4027
53.7669
88.0373
69.3989
52.191
48.3341
123.039
101.321
186.76
142.108
128.575
105.757
192.87
148.864
78.32
67.5373
104.213
83.0675
87.7368
74.454
121.679
98.8081
25.2756
25.0144
25.8902
25.7042
25.4434
25.0256
26.6821
26.0318
21.6579
8.92545
80.2998
117.39
74.8635
123.088
83.4696
139.077
80.3522
148.806
9.5637
66.5191
116.683
62.4131
107.112
79.6304
143.357
70.514
125.151
15.4028
86.5275
141.475
84.3716
153.315
87.0336
136.3
84.5671
145.391
16.4731
82.3476
149.385
72.8558
130.216
85.1821
143.964
80.3788
128.487
162.07
192.224
175.271
211.531
190.748
224.974
200.776
244.304
205.163
194.041
228.248
223.126
240.011
232.09
268.874
264.827
168.819
208.654
153.176
184.857
197.481
248.206
180.76
224.998
229.263
225.192
203.305
200.85
274.84
274.521
252.115
249.837
198.719
240.413
211.506
263.81
194.54
235.819
205.481
257.988
264.173
255.267
291.627
289.939
261.234
254.319
286.656
287.983
210.911
267.51
190.39
240.683
203.309
260.98
185.562
238.03
278.568
284.631
250.806
260.348
274.528
287.471
250.821
266.897
176.903
145.075
206.411
171.8
212.466
175.204
245.539
205.259
106.636
98.7077
130.725
113.823
136.944
113.41
174.78
141.232
210.608
178.26
179.073
154.79
249.971
211.247
216.916
182.588
136.806
118.839
121.096
109.463
184.88
149.778
163.428
136.889
220.868
191.654
264.04
227.415
226.155
199.429
268.694
238.22
152.445
135.271
187.956
159.784
164.633
141.272
204.794
171.427
269.604
239.079
250.348
222.606
275.982
250.614
259.342
234.873
199.316
171.834
181.176
160.05
212.158
184.589
198.679
171.147
83.9608
76.9323
86.8613
78.6304
91.6916
79.4106
97.2814
82.2425
54.6916
54.5735
55.3541
55.2922
55.081
54.8258
55.9012
55.6129
4.31553
40.9329
91.1982
32.0912
63.9382
58.4372
117.011
52.8123
85.5746
0.173032
12.8545
7.35217
64.7396
122.059
47.2793
82.5467
62.991
115.114
28.8585
71.2989
1.2917
3.944
114.356
142.683
74.624
89.1933
143.407
184.779
91.8203
111.454
164.23
152.178
101.907
93.076
203.334
191.268
133.578
129.018
11.3563
4.82898
-8.97976
-10.3787
33.7316
31.4561
-1.7066
-1.60389
33.7513
38.4479
28.9469
32.0645
53.2631
61.2259
33.0687
40.1892
149.095
199.069
98.025
126.666
144.637
196.278
95.3859
127.642
226.202
227.789
152.458
155.861
227.386
237.947
152.944
165.652
39.9777
61.7672
7.53033
22.4575
46.4508
74.9658
15.0276
29.6032
81.6789
93.6337
47.2503
57.3522
95.0662
114.785
44.2293
61.0595
115.665
95.8868
78.8199
76.5888
183.244
147.408
118.485
103.413
86.4933
80.1628
71.9314
67.8234
122.152
108.145
94.0434
88.5964
55.3284
58.7815
51.4105
53.8257
68.0331
72.2503
57.2031
61.808
61.2076
61.732
57.8099
58.6735
71.7695
73.0927
64.793
66.6453
201.995
174.748
148.2
133.127
223.147
195.392
162.74
147.378
162.401
129.269
123.702
107.371
192.528
153.289
148.76
123.926
95.4596
94.8333
67.2822
71.0791
118.041
115.312
72.4648
77.9437
77.4022
45.9183
45.7736
45.2245
45.3982
48.1913
46.6483
46.0048
45.777
33.9774
-0.0905941
-21.8767
-22.5101
-20.7826
-21.6087
-21.8527
-21.1919
-21.8026
-20.9854
-5.80412
-4.1859
-4.06146
-4.04571
-2.38282
-1.63992
-3.67212
-3.64319
6.90073
12.0478
-0.14144
-1.27369
-0.0628474
-1.74629
-0.321961
1.72804
-0.30136
2.70545
-4.84707
-2.54686
-7.61539
-4.81706
-5.81203
-3.39466
0.84468
-1.76099
-1.83318
-2.30383
4.91593
0.238218
-0.422487
-1.37211
-3.33128
-3.32014
-3.75252
-3.72988
-1.93936
-2.26431
-3.07253
-3.13794
1.05778
1.05405
0.819615
0.892682
0.952732
0.97167
0.770443
0.830048
3.33356
6.23545
-0.0140433
-0.283018
-0.532722
0.110882
-0.239583
0.515979
-0.119911
0.279349
-0.111171
1.02587
2.12487
3.78341
-0.021833
-0.135703
0.0427993
0.742969
1.92791
0.104333
-3.85852
-1.48019
-0.26527
0.885944
0.0397354
-0.609907
-6.82405
-5.25374
-1.36278
-0.0311344
-4.97894
-4.69503
-5.34124
-4.54343
-4.14527
-4.26322
-3.70247
-4.03792
-4.77288
-5.05109
-4.5021
-4.5482
-4.74169
-5.34851
-4.272
-4.67411
-0.950466
2.20422
0.556396
8.64631
5.25168
56.8192
0.609256
1.55256
2.20611
16.7598
4.07788
14.2818
47.5879
61.5122
6.65307
14.1743
27.8202
42.137
48.9518
57.9367
78.0409
85.4611
50.6996
56.9908
68.0417
77.9213
91.2977
113.376
144.818
181.964
70.4726
96.3248
112.692
147.781
138.484
143.083
198.201
196.292
125.116
131.481
167.708
171.748
-0.297243
36.9223
42.1413
73.2958
69.3095
105.585
13.333
39.9126
29.8742
60.4822
99.0367
103.434
132.531
136.998
55.5459
62.0843
74.4274
79.7539
64.3793
61.551
131.008
112.46
188.735
153.219
119.092
104.605
168.344
142.305
98.6039
82.9779
133.338
109.75
96.9409
80.1561
129.561
106.915
49.3546
48.9938
63.2906
65.1847
43.4109
41.1523
52.7657
53.3953
50.0065
100.608
91.2023
139.842
121.47
57.0279
52.3642
77.2445
68.4283
83.6811
71.0179
111.34
93.8386
48.8229
38.1716
64.0407
53.2368
32.528
31.8842
35.0065
33.0452
31.9612
31.529
33.3502
32.293
20.9552
20.8435
22.0295
21.8333
20.9606
20.9453
21.7939
21.6369
13.1396
74.2672
137.437
80.04
153.784
62.6725
110.303
72.2753
127.637
13.1099
82.0964
155.555
78.1279
141.352
77.3851
132.774
75.7051
124.243
5.24322
26.9935
5.45305
28.0692
170.613
213.1
186.153
237.555
138.883
175.042
151.681
191.707
238.482
237.552
260.816
265.246
203.439
207.426
216.895
228.133
185.417
239.083
168.278
215.423
152.462
191.736
140.202
175.89
263.985
273.38
246.502
256.245
218.027
233.287
205.129
219.229
84.9095
125.875
91.512
137.076
26.778
61.9496
29.569
66.9823
151.496
161.61
165.747
180.331
90.4599
99.3883
97.9174
109.127
93.8465
137.469
88.1798
126.015
34.2875
70.0797
34.7057
65.132
166.093
181.374
152.154
166.85
98.6235
108.509
89.5686
99.2322
219.304
193.525
255.44
229.823
193.145
170.405
222.308
199.488
165.034
124.012
207.626
162.589
145.947
110.083
183.763
146.548
261.551
237.416
247.19
223.194
228.966
209.75
210.272
193.433
207.133
180.406
192.503
170.048
184.036
161.617
173.356
155.703
154.153
138.027
172.783
156.263
97.8408
88.2487
109.968
100.924
134.811
112.592
154.214
132.045
71.2085
56.91
90.6065
78.23
174.855
157.566
160.15
149.057
113.901
109.037
101.778
95.8556
147.728
132.235
137.105
125.536
94.1985
83.227
87.8796
81.0938
107.004
76.3977
134.515
103.7
102.011
76.1179
125.907
103.51
79.3074
105.123
83.2981
76.1052
68.5957
76.9471
68.599
65.6563
65.6469
66.9187
66.668
64.3411
64.8054
65.2317
65.5679
6.02084
48.3412
0.567509
8.84613
3.21459
11.7764
1.1363
-5.1799
135.755
179.117
82.3598
113.469
108.103
145.769
62.5961
91.9021
205.184
217.479
148.45
161.232
168.075
181.332
121.683
136.808
44.7359
70.2004
14.8982
22.9912
27.5958
48.8207
6.24016
11.2741
81.7491
102.837
45.4714
64.248
63.6444
86.9239
32.5035
51.9071
66.8163
102.999
38.2639
68.5045
27.8481
56.3691
8.44967
35.2202
129.085
144.319
84.4532
99.894
68.4102
76.9802
45.314
53.6223
-21.4411
41.6241
72.9945
10.1709
36.6669
16.9853
40.3214
2.82685
19.2479
227.545
203.917
159.14
144.992
188.167
174.454
127.241
122.236
190.747
157.165
148.658
128.157
168.566
145.949
132.745
118.495
120.573
123.8
72.6845
85.0816
103.224
112.56
61.1442
77.6729
84.6554
156.792
147.405
110.114
112.012
77.0306
76.2133
47.9201
51.6059
140.233
121.5
116.863
105.043
80.9499
80.0592
60.9976
64.7603
88.2325
100.297
55.1891
73.0298
51.3893
62.3238
33.3402
48.3575
58.8899
86.0106
71.0646
71.8941
69.4157
69.4137
64.1271
63.2518
64.7522
60.5748
60.4015
60.1753
60.1368
60.0763
60.0094
59.8698
59.8501
-0.132712
1.21393
0.604426
-3.00184
0.0827134
1.47573
0.679551
-0.906149
-46.8272
-18.9507
-57.7937
-47.0758
-49.2209
-24.8293
-49.259
-45.505
-36.4859
-16.8463
-34.2004
-6.49021
-3.53727
7.65127
-29.3451
0.160301
6.85658
24.7579
-44.5639
-20.9912
-34.3082
-36.582
-10.1333
0.811633
-29.1551
-27.5659
-5.20585
8.29127
-25.0262
1.06947
20.2105
48.546
-9.84736
15.5976
35.3937
62.8339
34.8346
35.5748
34.7718
34.938
33.8364
36.0106
36.571
35.4845
35.1619
35.081
34.682
34.6924
35.7146
35.4631
34.9141
34.8423
30.3682
2.09574
-2.97132
2.98634
18.2414
5.93596
14.5111
15.2564
37.3932
44.0424
33.7987
45.151
41.1074
52.72
39.1945
53.1335
-17.903
0.0376437
14.3233
45.2189
12.6966
28.3701
55.6904
92.6381
45.3369
60.2867
68.3528
69.2117
49.9111
66.6046
84.6263
76.9322
52.8356
93.439
100.283
129.041
82.2522
130.302
122.762
168.175
114.427
112.711
123.782
119.639
145.373
128.897
146.303
129.727
49.1089
49.5395
88.651
129.149
50.7431
67.2963
105.897
164.652
56.1684
78.4106
129.702
122.235
84.7225
88.2903
164.957
149.921
127.56
170.443
143.094
203.44
147.07
200.209
169.127
230.455
180.493
153.234
205.193
168.036
211.667
190.282
247.033
211.26
23.6486
14.5796
24.8604
23.5809
24.0251
23.2737
27.9121
24.6239
25.6204
23.8905
17.0628
70.3185
63.4317
73.8254
66.4231
91.3421
77.4468
101.834
79.7071
35.9087
87.9987
55.6298
73.4311
49.8952
141.467
94.6602
123.816
79.5085
31.5289
30.7152
30.5419
30.1192
39.3271
34.774
35.4139
33.0291
17.6262
17.6869
17.4922
17.5527
17.7987
17.768
17.5596
17.5718
17.156
3.13947
36.3339
1.26986
12.8583
15.2033
26.9441
43.1185
24.7992
45.0751
31.0242
48.1643
27.6565
44.216
4.64274
14.9942
76.617
57.7385
52.2041
44.997
126.012
129.008
100.439
80.9488
25.5568
25.2485
24.9055
24.7506
29.1449
26.6527
25.959
25.1601
29.4714
21.4909
142.254
195.337
133.552
171.777
169.416
233.177
147.93
212.997
174.776
110.222
124.17
73.5833
232.39
191.098
197.02
144.296
107.832
128.74
79.4588
85.5925
126.568
167.228
93.6334
119.316
46.626
33.0159
33.7801
28.7819
113.026
64.3459
60.2962
41.8468
10.0107
9.56012
9.75874
9.53569
15.7145
13.7355
13.6734
13.0071
27.3788
17.6711
18.7244
14.7046
10.605
10.4682
9.85613
9.3412
9.98092
0.118469
-0.019047
0.0180488
0.121721
0.566891
1.62142
-0.038915
0.421853
2.26187
1.86567
1.80823
2.0413
2.44411
1.40435
2.36647
1.33339
12.8815
5.68223
3.01493
1.82362
1.35041
-8.06188
0.046969
3.10942
3.61261
4.60123
0.0889157
-2.69261
-1.34933
-0.517579
0.729067
0.0383773
-0.180023
-2.53819
-0.34029
0.860755
0.0333424
1.84203
-2.85513
-0.892329
1.00676
0.0279119
0.775076
0.267819
0.563962
-0.591021
1.5279
-2.60541
-1.209
0.69208
-11.6374
-6.03006
11.4815
13.5452
24.1392
29.7591
-19.4078
-26.1602
-28.4343
-34.7903
1.2492
-13.8385
-28.5735
-42.4329
-41.4001
-62.0242
-47.9405
-65.6513
-75.3814
-105.488
-50.1272
-50.107
-71.1584
-80.4049
-80.9002
-90.7329
-125.722
-148.413
-28.2681
-27.8857
15.664
15.2335
32.8992
31.495
-37.6916
-44.6002
-41.233
-45.2806
13.4699
10.3803
28.3664
23.1978
-45.7935
-41.6979
-43.0473
-38.4121
-37.6072
-46.9761
-48.755
-45.3759
-81.6974
-84.3482
-97.9791
-99.1062
-150.774
-139.936
-56.2614
-46.2161
-79.5582
-61.1006
-100.948
-83.0323
-142.806
-113.774
-13.2502
-13.1468
-12.3127
-12.4202
-13.4932
-13.2359
-15.9724
-13.4807
0.339651
0.447627
2.54812
0.930276
2.10545
-5.21183
-1.34254
-21.5986
27.6868
-12.552
-30.9121
-54.1073
-27.4731
-59.1518
-2.69674
-31.627
-4.72455
14.1336
-1.07626
18.6577
-21.7453
-31.7395
-19.1105
-32.8277
19.1286
29.351
24.6119
38.2389
-26.8605
-34.5201
-32.466
-40.7804
4.10083
21.9968
6.51539
18.1812
-14.1584
-29.3812
-10.107
-25.6447
26.8693
38.5102
20.0892
29.5527
-30.1845
-40.0338
-27.6786
-37.3809
-58.2393
-81.4825
-55.3373
-85.7435
-97.0834
-135.297
-104.873
-151.641
-97.85
-102.212
-106.529
-113.458
-156.846
-165.845
-177.86
-191.438
-49.2857
-80.6551
-41.5052
-70.1064
-106.629
-147.991
-91.1549
-126.165
-104.44
-112.243
-94.3967
-101.368
-175.114
-192.222
-152.223
-169.263
27.679
24.4615
34.9464
27.6463
-34.2289
-37.277
-38.2221
-36.8171
18.4076
17.6777
20.5758
20.911
-34.4054
-33.8638
-33.7832
-34.3679
35.0962
30.2691
27.8981
29.2769
-37.7403
-36.2104
-35.0361
-36.7142
28.0614
31.4017
31.2429
35.9404
-39.1546
-36.3008
-39.0487
-34.5944
-111.752
-101.195
-120.15
-112.902
-168.78
-167.033
-183.614
-180.635
-88.5735
-63.6459
-103.357
-86.6214
-147.481
-115.993
-151.048
-133.677
-122.647
-117.172
-112.141
-110.504
-187.825
-180.64
-176.625
-170.369
-101.281
-87.7757
-98.2741
-85.9682
-168.825
-144.896
-161.295
-138.458
24.5766
32.058
22.9353
35.1022
-38.6342
-35.2111
-27.6645
-26.9766
22.3416
22.9577
30.9109
27.8359
30.6706
-23.6058
-13.1896
-19.6875
-6.60738
12.9488
-40.0921
-20.0949
-72.8754
-47.7201
-95.5951
-61.2382
-115.117
-97.8191
-41.2169
-75.9501
-70.5741
-70.9932
-73.6448
-111.352
-92.9474
-106.048
-88.1725
-50.8705
2.49855
1.89987
3.78352
2.71503
0.580492
1.07759
0.253552
1.24188
0.897415
0.0373243
0.490773
0.645952
-1.94701
0.0485033
-0.491477
2.34849
-22.2412
14.8615
28.0509
-1.03738
10.4171
-36.8129
-38.8089
-32.9233
-34.4581
-28.4172
-24.6518
-31.664
-61.2212
-30.9133
-49.1029
-70.5158
-106.996
-40.713
-70.5804
-72.9427
-86.1
-60.801
-68.5383
-126.598
-154.477
-91.0229
-113.926
-19.8148
-41.7301
38.2905
42.2499
25.0405
33.7501
-43.5688
-43.7137
-35.7623
-37.481
38.8894
30.9105
35.222
29.5854
-37.3657
-22.029
-28.9011
-11.8574
-10.1417
0.141909
-89.6562
-91.3458
-73.1426
-70.7088
-152.563
-149.507
-113.883
-115.421
-87.3991
-76.6968
-59.9061
-58.8338
-143.409
-113.728
-113.309
-94.6554
-50.1913
-54.4224
-28.3556
-24.0003
-90.2347
-101.736
-56.046
-58.5922
-44.1958
-32.1025
-12.857
-3.60072
-96.0195
-70.2542
-47.2463
-36.2471
30.6772
33.1766
35.3398
37.7943
-6.51696
-1.50057
-3.03753
3.12593
14.2021
15.3632
23.1436
-66.6087
-59.3652
-54.6777
-48.4468
-88.5846
-80.5938
-80.4985
-76.5531
-32.3972
-7.01804
-18.341
4.2442
-59.4425
-43.0986
-44.9808
-29.0688
-26.4228
-21.0566
0.743796
6.79031
-52.5316
-45.6117
-28.1968
-24.267
-6.82326
25.0818
25.0297
25.82
25.5084
21.2348
23.2939
23.3015
24.1368
0.113463
0.862419
1.4373
-5.97162
0.173421
0.470669
1.36903
-2.84561
-14.072
-14.8599
-16.5357
-8.70888
16.5693
35.0779
74.768
-0.569946
25.0446
37.584
81.5127
-3.08302
-8.98457
-28.6386
-17.3848
-22.2468
2.1108
-23.2689
-14.1485
-11.3372
8.31693
-0.237452
26.3957
35.9144
82.3505
1.44748
27.0856
38.5731
83.1755
7.03347
25.2421
19.3911
37.6955
77.7099
92.2748
31.75
50.1882
92.8048
110.113
77.6255
-5.00374
-9.61348
9.81692
36.7768
49.9529
-30.1463
-8.17635
24.8913
34.6606
29.1594
46.376
93.2659
109.398
28.0226
43.2995
95.4946
108.995
55.2442
60.6067
117.603
110.059
53.7089
57.8087
118.289
112.294
56.0675
61.8799
69.302
67.4359
36.9497
53.5084
69.6249
66.5061
58.3437
6.32302
25.4128
16.1118
81.5491
94.9723
84.9308
104.782
72.3204
98.8138
82.8756
116.358
5.76344
30.0724
18.1236
56.5496
104.972
78.7329
136.923
65.5794
102.434
81.8059
129.694
36.1885
71.3569
111.39
151.274
25.0442
68.2325
110.773
157.107
100.057
112.62
174.943
163.801
100.718
127.301
175.846
192.127
168.468
217.627
193.584
252.647
169.951
222.936
195.638
261.015
233.104
227.798
276.199
250.605
249.703
245.07
281.937
279.287
28.3423
63.9363
107.549
153.915
42.1676
68.2593
105.578
147.094
102.098
126.518
180.838
196.137
104.055
129.507
179.741
198.098
167.093
220.405
199.374
260.956
157.899
210.233
188.568
249.328
254.37
257.196
290.246
293.567
251.136
257.771
281.783
294.757
105.466
115.755
157.756
142.918
129.728
132.607
198.356
177.445
116.658
112.615
127.85
121.231
134.647
124.474
152.892
135.598
188.187
150.849
190.007
145.01
224.077
196.434
239.679
197.602
132.663
113.318
128.166
112.187
176.25
146.546
164.281
137.054
134.566
128.752
191.674
188.851
133.466
137.538
189.58
199.541
138.861
129.547
177.866
150.941
142.621
129.485
192.421
158.381
246.886
200.941
155.25
186.572
143.117
203.996
160.067
187.571
148.403
59.5845
56.2209
57.9508
55.9123
66.7146
58.0869
75.5815
63.1947
69.1581
60.855
88.5978
70.0797
77.8919
65.5064
56.8072
36.5854
14.3032
68.6373
121.68
62.3359
110.915
75.9248
140.325
64.5897
124.425
2.69393
42.8958
54.7897
39.1422
44.2708
41.9793
56.5622
37.4143
43.4918
16.525
77.8835
146.045
58.7433
119.617
77.9794
138.268
52.6986
110.482
3.40942
31.9446
49.8081
28.218
35.8492
31.3004
50.5491
31.4845
38.2136
198.302
253.641
182.114
232.876
201.939
263.757
185.257
242.048
272.508
242.696
249.75
215.972
290.765
280.731
270.168
249.82
137.256
192.263
95.4208
130.341
140.385
200.122
98.054
136.665
200.932
175.748
130.238
127.952
228.577
208.835
152.288
154.035
200.943
264.598
181.823
244.835
192.083
255.758
172.736
234.134
294.13
294.193
274.529
262.672
289.435
295.315
269.238
263.184
135.158
206.533
86.9194
143.515
127.24
198.418
79.9179
137.223
234.083
209.309
157.491
147.967
230.202
202.508
149.416
140.738
167.525
110.171
124.02
85.6915
235.825
164.558
181.358
118.626
56.1755
52.4608
51.5953
50.0614
67.749
57.2545
55.818
51.9045
57.1998
51.525
52.3114
50.1215
70.7211
55.5138
55.6742
50.999
36.4043
260.697
191.193
210.042
138.927
270.699
209.066
222.202