# vtk DataFile Version 3.0
Gravity inversion using rectangular prisms
ASCII
DATASET UNSTRUCTURED_GRID

POINTS	4287	double
100	100	100
100	100	300
100	100	500
100	100	700
100	100	900
100	300	100
100	300	300
100	300	500
100	300	700
100	300	900
100	500	100
100	500	300
100	500	500
100	500	700
100	500	900
100	700	100
100	700	300
100	700	500
100	700	700
100	700	900
100	900	100
100	900	300
100	900	500
100	900	700
100	900	900
100	1100	100
100	1100	300
100	1100	500
100	1100	700
100	1100	900
100	1300	100
100	1300	300
50	1250	450
50	1250	550
50	1350	450
50	1350	550
150	1250	450
150	1250	550
150	1350	450
150	1350	550
100	1300	700
100	1300	900
100	1500	100
100	1500	300
100	1500	500
100	1500	700
100	1500	900
100	1700	100
100	1700	300
100	1700	500
100	1700	700
100	1700	900
100	1900	100
100	1900	300
100	1900	500
100	1900	700
100	1900	900
300	100	100
300	100	300
300	100	500
300	100	700
300	100	900
300	300	100
300	300	300
300	300	500
300	300	700
300	300	900
300	500	100
300	500	300
300	500	500
300	500	700
300	500	900
300	700	100
300	700	300
300	700	500
300	700	700
300	700	900
300	900	100
300	900	300
300	900	500
300	900	700
300	900	900
300	1100	100
300	1100	300
300	1100	500
300	1100	700
300	1100	900
300	1300	100
300	1300	300
300	1300	500
300	1300	700
300	1300	900
300	1500	100
300	1500	300
300	1500	500
300	1500	700
300	1500	900
300	1700	100
300	1700	300
300	1700	500
300	1700	700
300	1700	900
300	1900	100
300	1900	300
300	1900	500
300	1900	700
300	1900	900
500	100	100
500	100	300
500	100	500
500	100	700
500	100	900
500	300	100
500	300	300
500	300	500
500	300	700
500	300	900
450	450	50
450	450	150
450	550	50
450	550	150
550	450	50
550	450	150
550	550	50
550	550	150
450	450	250
450	450	350
450	550	250
450	550	350
550	450	250
550	450	350
525	525	225
525	525	275
525	575	225
525	575	275
575	525	225
575	525	275
575	575	225
575	575	275
525	525	325
525	525	375
525	575	325
525	575	375
575	525	325
575	525	375
575	575	325
575	575	375
450	450	450
450	450	550
450	550	450
450	550	550
550	450	450
550	450	550
550	550	450
550	550	550
500	500	700
500	500	900
450	650	50
450	650	150
450	750	50
450	750	150
550	650	50
550	650	150
550	750	50
525	725	125
525	725	175
525	775	125
525	775	175
575	725	125
575	725	175
575	775	125
575	775	175
450	650	250
450	650	350
450	750	250
450	750	350
525	625	225
525	625	275
525	675	225
525	675	275
575	625	225
575	625	275
575	675	225
575	675	275
525	625	325
525	625	375
525	675	325
525	675	375
575	625	325
575	625	375
575	675	325
575	675	375
525	725	225
525	725	275
525	775	225
525	775	275
575	725	225
575	725	275
575	775	225
575	775	275
525	725	325
525	725	375
525	775	325
525	775	375
575	725	325
575	725	375
575	775	325
575	775	375
450	650	450
450	650	550
450	750	450
450	750	550
525	625	425
525	625	475
525	675	425
525	675	475
575	625	425
575	625	475
575	675	425
575	675	475
550	650	550
525	725	425
525	725	475
525	775	425
525	775	475
575	725	425
575	725	475
575	775	425
575	775	475
550	750	550
450	650	650
450	650	750
450	750	650
450	750	750
550	650	650
550	650	750
550	750	650
550	750	750
500	700	900
450	850	50
450	850	150
450	950	50
450	950	150
550	850	50
550	850	150
550	950	50
550	950	150
450	850	250
450	850	350
450	950	250
450	950	350
525	825	225
525	825	275
525	875	225
525	875	275
575	825	225
575	825	275
575	875	225
575	875	275
525	825	325
525	825	375
525	875	325
525	875	375
575	825	325
575	825	375
575	875	325
575	875	375
550	950	250
550	950	350
450	850	450
450	850	550
450	950	450
450	950	550
550	850	450
550	850	550
550	950	450
550	950	550
500	900	700
500	900	900
500	1100	100
500	1100	300
500	1100	500
500	1100	700
500	1100	900
500	1300	100
500	1300	300
500	1300	500
500	1300	700
500	1300	900
500	1500	100
500	1500	300
500	1500	500
500	1500	700
500	1500	900
500	1700	100
500	1700	300
500	1700	500
500	1700	700
500	1700	900
500	1900	100
500	1900	300
500	1900	500
500	1900	700
500	1900	900
700	100	100
700	100	300
700	100	500
700	100	700
700	100	900
700	300	100
650	250	250
650	250	350
650	350	250
650	350	350
750	250	250
750	250	350
750	350	250
750	350	350
700	300	500
700	300	700
700	300	900
650	450	50
650	450	150
650	550	50
625	525	125
625	525	175
625	575	125
625	575	175
675	525	125
675	525	175
675	575	125
675	575	175
750	450	50
750	450	150
750	550	50
750	550	150
625	425	225
625	425	275
625	475	225
625	475	275
675	425	225
675	425	275
675	475	225
675	475	275
625	425	325
625	425	375
625	475	325
625	475	375
675	425	325
675	425	375
675	475	325
675	475	375
625	525	225
625	525	275
625	575	225
625	575	275
675	525	225
675	525	275
675	575	225
675	575	275
625	525	325
625	525	375
625	575	325
625	575	375
675	525	325
675	525	375
675	575	325
675	575	375
750	450	250
725	425	325
725	425	375
725	475	325
725	475	375
775	425	325
775	425	375
775	475	325
775	475	375
725	525	225
725	525	275
725	575	225
725	575	275
775	525	225
775	525	275
775	575	225
775	575	275
725	525	325
725	525	375
725	575	325
725	575	375
775	525	325
775	525	375
775	575	325
775	575	375
650	450	450
650	450	550
625	525	425
625	525	475
625	575	425
625	575	475
675	525	425
675	525	475
675	575	425
675	575	475
650	550	550
750	450	450
750	450	550
725	525	425
725	525	475
725	575	425
725	575	475
775	525	425
775	525	475
775	575	425
775	575	475
725	525	525
725	525	575
725	575	525
725	575	575
775	525	525
775	525	575
775	575	525
775	575	575
650	450	650
650	450	750
650	550	650
650	550	750
750	450	650
750	450	750
750	550	650
750	550	750
700	500	900
650	650	50
625	625	125
625	625	175
625	675	125
625	675	175
675	625	125
675	625	175
675	675	125
675	675	175
650	750	50
625	725	125
625	725	175
625	775	125
625	775	175
675	725	125
675	725	175
675	775	125
675	775	175
750	650	50
725	625	125
725	625	175
725	675	125
725	675	175
775	625	125
775	625	175
775	675	125
775	675	175
750	750	50
725	725	125
725	725	175
725	775	125
725	775	175
775	725	125
775	725	175
775	775	125
775	775	175
625	625	225
625	625	275
625	675	225
625	675	275
675	625	225
675	625	275
675	675	225
675	675	275
625	625	325
625	625	375
625	675	325
625	675	375
675	625	325
675	625	375
675	675	325
675	675	375
625	725	225
625	725	275
625	775	225
625	775	275
675	725	225
675	725	275
675	775	225
675	775	275
625	725	325
625	725	375
625	775	325
625	775	375
675	725	325
675	725	375
675	775	325
675	775	375
725	625	225
725	625	275
725	675	225
725	675	275
775	625	225
775	625	275
775	675	225
775	675	275
725	625	325
725	625	375
725	675	325
725	675	375
775	625	325
775	625	375
775	675	325
775	675	375
725	725	225
725	725	275
725	775	225
725	775	275
775	725	225
775	725	275
775	775	225
775	775	275
725	725	325
725	725	375
725	775	325
725	775	375
775	725	325
775	725	375
775	775	325
775	775	375
625	625	425
625	625	475
625	675	425
625	675	475
675	625	425
675	625	475
675	675	425
675	675	475
625	625	525
625	625	575
625	675	525
625	675	575
675	625	525
675	625	575
675	675	525
675	675	575
625	725	425
625	725	475
625	775	425
625	775	475
675	725	425
675	725	475
675	775	425
675	775	475
625	725	525
625	725	575
625	775	525
625	775	575
675	725	525
675	725	575
675	775	525
675	775	575
725	625	425
725	625	475
725	675	425
725	675	475
775	625	425
775	625	475
775	675	425
775	675	475
725	625	525
725	625	575
725	675	525
725	675	575
775	625	525
775	625	575
775	675	525
775	675	575
725	725	425
725	725	475
725	775	425
725	775	475
775	725	425
775	725	475
775	775	425
775	775	475
725	725	525
725	725	575
725	775	525
725	775	575
775	725	525
775	725	575
775	775	525
775	775	575
650	650	650
650	650	750
650	750	650
650	750	750
725	625	625
725	625	675
725	675	625
725	675	675
775	625	625
775	625	675
775	675	625
775	675	675
750	650	750
725	725	625
725	725	675
725	775	625
725	775	675
775	725	625
775	725	675
775	775	625
775	775	675
750	750	750
650	650	850
650	650	950
650	750	850
650	750	950
750	650	850
750	650	950
750	750	850
750	750	950
650	850	50
625	825	125
625	825	175
625	875	125
625	875	175
675	825	125
675	825	175
675	875	125
675	875	175
650	950	50
650	950	150
750	850	50
725	825	125
725	825	175
725	875	125
725	875	175
775	825	125
775	825	175
775	875	125
775	875	175
750	950	50
750	950	150
625	825	225
625	825	275
625	875	225
625	875	275
675	825	225
675	825	275
675	875	225
675	875	275
625	825	325
625	825	375
625	875	325
625	875	375
675	825	325
675	825	375
675	875	325
675	875	375
625	925	225
625	925	275
625	975	225
625	975	275
675	925	225
675	925	275
675	975	225
675	975	275
625	925	325
625	925	375
625	975	325
625	975	375
675	925	325
675	925	375
675	975	325
675	975	375
725	825	225
725	825	275
725	875	225
725	875	275
775	825	225
775	825	275
775	875	225
775	875	275
725	825	325
725	825	375
725	875	325
725	875	375
775	825	325
775	825	375
775	875	325
775	875	375
750	950	250
725	925	325
725	925	375
725	975	325
725	975	375
775	925	325
775	925	375
775	975	325
775	975	375
625	825	425
625	825	475
625	875	425
625	875	475
675	825	425
675	825	475
675	875	425
675	875	475
650	850	550
650	950	450
650	950	550
725	825	425
725	825	475
725	875	425
725	875	475
775	825	425
775	825	475
775	875	425
775	875	475
725	825	525
725	825	575
725	875	525
725	875	575
775	825	525
775	825	575
775	875	525
775	875	575
750	950	450
750	950	550
650	850	650
650	850	750
650	950	650
650	950	750
750	850	650
750	850	750
750	950	650
750	950	750
700	900	900
700	1100	100
650	1050	250
650	1050	350
650	1150	250
650	1150	350
750	1050	250
750	1050	350
750	1150	250
750	1150	350
650	1050	450
650	1050	550
650	1150	450
650	1150	550
750	1050	450
750	1050	550
750	1150	450
750	1150	550
700	1100	700
700	1100	900
650	1250	50
650	1250	150
650	1350	50
650	1350	150
750	1250	50
750	1250	150
750	1350	50
750	1350	150
650	1250	250
650	1250	350
650	1350	250
650	1350	350
750	1250	250
750	1250	350
725	1325	225
725	1325	275
725	1375	225
725	1375	275
775	1325	225
775	1325	275
775	1375	225
775	1375	275
725	1325	325
725	1325	375
725	1375	325
725	1375	375
775	1325	325
775	1325	375
775	1375	325
775	1375	375
650	1250	450
650	1250	550
650	1350	450
650	1350	550
750	1250	450
750	1250	550
750	1350	450
750	1350	550
700	1300	700
700	1300	900
700	1500	100
650	1450	250
650	1450	350
650	1550	250
650	1550	350
750	1450	250
750	1450	350
750	1550	250
750	1550	350
700	1500	500
700	1500	700
700	1500	900
[...]
CELL_DATA	4287
SCALARS model double 1
LOOKUP_TABLE table0
0.00672664
-0.852694
5.91578
1.51038
-1.1346
-0.0671016
1.69411
-1.35997
-4.69205
-5.87578
-0.0194369
1.31087
-5.57332
-9.29429
-9.57858
-0.0791883
4.20053
-8.68497
-13.9546
-12.5808
0.0413503
1.4803
-10.2068
-15.0666
-11.7764
-0.0556878
0.572233
-1.57248
-6.57344
-6.37814
0.0885542
-6.30415
27.3597
26.2291
30.0976
27.9968
27.2502
29.1665
21.1292
28.9662
0.765794
-2.58564
0.0817511
-3.54994
13.9079
-1.78605
-2.23417
0.0368806
-0.692248
-0.673856
-4.914
-3.35624
-0.0866304
3.9044
-8.63755
-3.38718
-1.49087
0.0268715
0.0114746
-3.57942
-5.6127
-6.12584
0.00967086
-0.472574
-3.71703
-5.66269
-5.45761
0.0103034
-2.16895
-4.5569
-4.6325
-2.97384
0.015771
-5.11476
-4.60284
-3.65702
-0.942973
0.0344854
-2.73595
-8.01821
-8.51808
-3.89984
-0.0667923
-0.541467
-9.90249
-10.7277
-5.57608
-0.0523683
1.14052
-10.1812
-7.77838
-4.25956
-0.0649259
1.18905
-7.11009
-5.69914
-3.57869
-0.0375272
2.56962
-7.61027
-5.8099
-3.66444
0.0170234
0.137083
-5.76957
-5.30065
-2.59628
0.0105203
-0.496183
-2.57593
-5.05481
-5.75189
-0.00113834
-1.77687
-4.19213
-4.41373
-2.57741
-0.124533
-0.363834
-0.19039
0.596501
-0.0585271
4.04995
0.0889212
5.8397
-4.22042
-1.40456
-0.686003
-0.893115
-2.16419
-0.24241
54.9833
53.7841
57.7094
54.6398
74.7148
54.1929
121.774
87.0454
-0.473165
-0.528708
8.76237
5.79879
8.14269
4.42131
32.3559
17.9617
1.29787
1.81322
1.46293
2.10948
1.24932
1.83331
1.17531
1.85945
4.23883
7.21923
0.162168
-5.36175
-0.0171988
2.1075
-1.49707
36.2078
0.46292
-28.8026
-6.15361
20.818
29.0826
16.9035
36.9612
54.9428
69.0197
-0.357265
25.7976
1.47118
28.1838
54.8401
70.7865
31.0365
74.8778
123.046
141.285
111.767
145.775
104.297
108.639
116.745
120.116
136.22
122.758
157.705
141.673
42.7657
103.477
84.9908
123.896
108.209
151.431
116.357
145.299
120.897
116.392
114.837
109.649
151.637
135.391
129.571
117.193
27.6836
28.1266
28.3323
29.0928
45.3618
42.2579
55.1378
49.283
57.882
51.0949
71.8093
60.6224
35.7446
56.9422
50.8545
52.282
47.4645
72.6064
62.1876
62.1151
55.1305
37.5826
20.7476
20.9364
20.7168
20.9918
20.7374
20.8272
20.6554
20.87
19.0643
0.158109
-1.13181
0.0835076
0.697887
0.432761
8.83629
0.328878
1.97309
-2.47341
-2.51035
-5.76872
-5.06186
36.3468
30.632
29.2696
22.7041
73.3119
47.4205
34.2457
22.4591
8.65763
5.34911
-5.57355
-8.15861
17.9418
9.74881
-6.58671
-10.1891
-13.7984
-10.2948
1.3399
1.61052
-0.448624
0.30349
-0.402786
0.216814
-2.35032
-0.997008
5.54155
10.4171
-0.00485315
-4.19295
-10.292
-4.91093
1.49371
0.139221
-8.05851
-4.97172
-2.89369
0.0625587
0.0634833
-1.81797
-2.18834
-1.83845
-0.330096
0.13528
-3.40205
-2.71329
-2.19351
-0.855052
-0.0438282
2.92416
-3.89398
-2.26269
-0.463872
0.0111551
-0.843631
-4.02431
-6.13704
-4.71269
0.0110589
-4.89482
-4.97243
-5.88624
-5.37924
-6.20428
-5.31474
-6.27535
-5.61043
-4.76152
-2.20774
1.13773
0.102537
8.44897
0.335324
64.7076
78.542
68.7789
101.582
50.2182
64.5585
79.0981
104.329
0.936198
7.04763
2.3976
50.5426
-10.1969
0.343719
9.39365
4.2507
-15.4217
0.445537
7.57722
9.66199
65.9864
68.4488
66.3844
70.2158
65.8375
69.4916
69.1143
74.0176
46.3552
98.5003
145.359
177.433
97.3026
98.2209
177.528
198.109
137
145.198
168.045
154.713
135.362
148.784
201.397
177.707
40.9019
79.0167
82.2445
82.4752
87.9414
78.6887
81.3657
85.4792
89.9032
82.7342
100.482
171.571
198.585
87.1836
103.858
168.097
191.022
122.383
140.241
211.669
198.195
122.303
140.079
210.555
203.464
43.4478
43.9251
55.5384
53.2794
69.7413
62.1239
64.8263
60.22
88.3241
74.2084
49.6976
52.4157
50.2478
99.9618
94.4556
130.261
107.971
106.342
98.031
146.117
117.551
69.6546
66.1495
83.0914
77.5149
72.7853
68.2787
91.024
83.5392
25.1999
24.9287
25.4849
25.3246
25.1137
24.6043
25.6954
25.1191
21.4726
0.96752
87.8433
135.618
61.0908
110.815
107.244
157.76
103.045
153.186
3.74798
69.1626
109.366
86.7664
126.531
94.9633
141.943
71.0264
132.59
8.26221
97.0743
155.989
96.348
158.051
100.532
157.44
78.7946
148.925
13.5228
85.9656
143.475
61.0159
121.295
65.6014
131.025
65.5368
120.692
209.048
233.202
201.927
250.697
256.421
290.435
265.153
313.949
244.441
240.021
260.891
252.345
296.08
274.223
324.342
301.176
198.061
246.746
199.144
230.773
250.155
298.46
232.334
269.356
253.442
246.34
233.182
228.113
311.176
293.449
274.012
259.094
261.978
308.834
283.344
340.292
251.242
296.579
273.924
330.629
311.233
301.654
353.976
342.613
317.701
311.061
361.801
355.757
266.109
323.305
236.545
290.117
257.138
315.255
223.33
278.006
344.493
338.116
303.292
300.596
354.895
354.454
314.379
317.099
179.972
170.04
198.921
181.369
207.133
181.777
243.11
205.181
123.757
116.799
131.378
122.552
136.548
127.032
150.915
137.534
199.428
184.917
183.16
172.186
243.857
214.735
213.955
193.569
144.523
136.079
140.702
133.678
166.076
152.671
159.246
148.764
245.978
205.506
290.395
247.389
258.645
213.39
309.444
261.418
174.46
161.284
200.036
175.509
181.888
163.648
217.846
183.395
297.719
259.528
264.279
235.92
319.626
277.176
283.407
249.103
217.603
184.679
199.649
170.166
236.18
191.144
213.975
173.113
84.0003
83.8694
84.0279
84.0628
94.1674
80.8439
103.779
87.7309
96.47
79.3405
109.256
88.0284
83.3074
108.339
87.6096
103.005
84.1406
115.922
88.545
109.949
84.833
83.4566
54.0266
53.6372
54.2902
54.0843
53.6984
53.1769
54.1107
53.7522
-0.0401995
78.5719
105.009
67.7934
75.9434
57.4289
101.903
72.5435
86.4449
0.259867
7.6462
5.77816
40.9091
84.1056
49.201
65.8158
69.1874
87.6932
58.6475
58.7004
2.31144
-5.20272
146.533
152.559
91.3394
77.4615
170.475
184.803
103.486
104.159
142.303
131.464
110.687
110.675
180.956
161.821
123.902
121.605
-9.32781
-13.2424
-13.7248
-16.1205
10.1204
1.68666
4.8174
-3.74002
34.6675
36.0291
33.2934
32.7839
43.6638
45.0233
40.6161
39.442
163.95
199.631
106.365
127.857
151.855
191.153
91.4074
121.378
218.986
212.749
145.382
150.622
231.837
231.869
157.946
167.967
22.8211
71.9357
74.8997
67.4364
65.8012
79.2468
89.7326
67.5245
71.7085
91.6546
86.3099
78.844
76.0131
113.657
103.389
89.7215
85.414
79.189
67.8093
71.8672
173.033
150.92
130.377
122.086
207.138
178.699
154.586
140.419
126.417
116.523
105.755
101.107
149.497
132.618
119.801
110.954
76.6898
77.1974
44.4812
44.7098
44.1925
44.545
45.0712
44.9036
44.5501
44.671
34.4258
0.0249249
-19.4141
-21.174
-18.8753
-20.7112
-17.594
-19.0393
-20.1868
-20.0507
-5.71697
-5.08481
-4.00118
-4.17993
-3.43789
-4.28458
-3.73743
-4.24011
7.07365
12.5447
0.078652
-0.728803
-0.0146235
-1.03287
0.494408
-2.46631
-0.289001
5.79766
-2.36306
-2.98131
-8.15507
-5.39083
-19.4456
-5.0972
-3.05099
-4.41762
-2.96748
-3.89565
-3.70428
-3.97158
-1.89938
-3.32062
-5.39912
-5.19538
-5.18536
-5.1477
-4.94083
-4.85333
-4.83621
-4.90207
0.754857
0.821007
0.67715
0.781881
0.645378
0.732611
0.608393
0.701022
3.43763
6.56399
-0.0136919
-0.423448
-0.640657
0.10529
-0.238049
0.452606
-0.239855
0.304017
-0.141753
1.05209
2.2266
4.0492
-0.0165605
-0.125546
0.0584624
0.852642
2.22407
0.0999223
-4.40724
-1.42966
0.0630415
1.46739
0.0149974
-0.545384
-7.97529
-6.4881
-1.77178
-0.00312627
-5.66895
-4.6988
-4.58366
-4.64623
-3.84642
-3.72842
-4.31564
-3.9851
-3.79686
-4.19333
-3.78669
-3.804
-3.60609
-4.65989
-3.38861
-3.802
-0.839533
2.25361
0.017681
14.0604
3.83606
47.9292
0.450438
4.39681
1.83154
0.7239
4.3027
59.4044
77.5014
86.1982
140.587
157.572
53.9154
66.661
106.597
123.145
110.706
137.25
188.371
194.215
101.027
127.806
163.229
175.514
-22.1617
-22.7957
-20.5302
-17.6478
-30.4819
-27.8949
-25.3608
-23.2357
19.4551
22.9857
23.726
30.5333
16.4562
21.0471
18.4645
25.6835
42.4279
68.3381
75.1617
99.5524
50.9704
69.2328
62.2148
83.9099
102.688
111.252
130.92
137.298
95.2747
96.5608
109.397
109.555
63.6543
63.338
117.558
110.973
153.908
130.173
112.717
107.213
143.718
125.046
87.7883
81.9291
105.855
96.9993
88.3843
81.9829
107.922
98.9689
50.604
54.5224
85.4473
80.6237
106.037
97.989
68.7397
62.7457
79.9567
71.8567
65.8178
31.7334
30.9625
32.5527
31.543
31.4198
30.6808
32.0347
31.1088
21.454
7.71518
114.542
132.218
57.0481
126.377
85.0419
96.4922
56.6097
100.713
6.05257
36.9022
115.496
70.4358
114.506
66.6874
99.7465
87.5517
94.8775
2.61563
54.8166
41.2381
40.4414
47.0866
-10.3532
7.89926
-23.1402
10.3666
1.52501
58.0885
51.6936
66.1086
49.3055
-16.722
9.80274
-4.87311
12.3661
203.591
246.881
216.923
271.821
151.381
189.02
165.517
211.368
289.117
299.906
331.573
341.692
243.373
260.879
279.691
295.227
205.514
261.767
180.665
229.959
160.388
207.187
138.669
180.869
324.156
338.115
292.457
309.963
278.26
296.782
252.763
274.08
100.638
130.17
109.753
140.735
80.6212
105.036
83.4864
109.394
180.844
191.611
193.856
207.125
138.409
142.504
144.676
150.719
109.084
140.925
95.636
127.471
80.3839
108
76.1655
102.718
193.757
209.442
181.566
197.356
145.622
153.782
140.843
148.169
252.544
213.886
299.858
257.445
226.596
197.157
265.052
231.375
182.094
159.035
222.833
180.169
164.689
140.163
202.407
160.243
313.549
275.692
282.893
252.105
275.644
241.798
252.813
222.968
236.845
184.85
221.496
172.059
209.917
158.387
196.392
146.634
165.407
147.544
194.1
177.781
116.222
100.348
132.028
115.918
137.887
124.647
161.646
144.277
88.1592
74.4429
101.54
85.5859
202.139
190.56
190.676
179.614
137.641
121.147
132.578
114.954
176.19
152.197
168.083
143.812
103.984
82.1613
97.9765
75.1136
99.3264
78.4386
114.406
88.3026
99.783
76.6439
117.329
88.46
82.8064
124.418
89.7583
120.969
88.3187
128.561
90.9475
125.395
89.8931
83.0931
82.279
80.9537
82.0247
80.4613
64.6054
64.1613
65.222
64.8499
63.9167
63.6875
64.3225
64.0983
5.91033
36.0726
1.67752
5.41691
2.92292
-6.42234
1.3006
-7.25595
120.197
157.991
63.2294
103.15
84.426
122.661
39.634
83.2668
223.888
242.721
160.141
181.99
199.585
219.756
154.555
173.71
9.44291
83.2356
103.273
61.4902
75.4836
73.8978
93.9631
54.1034
66.1387
56.7861
85.8962
35.6828
67.2654
53.2823
75.3287
52.6932
69.5984
138.617
154.946
114.95
127.031
107.795
115.599
96.1411
97.8448
-26.943
31.64
49.6248
20.262
31.9044
23.8708
35.4082
14.2477
20.6511
220.393
197.976
168.088
151.588
206.813
189.171
162.205
144.743
173.061
151.578
143.801
131.634
171.834
148.175
141.721
126.909
106.194
106.157
85.0464
85.4674
106.228
109.662
83.1472
85.9061
79.6852
151.826
150.462
131.342
127.287
109.117
99.9125
97.0102
85.5072
140.123
129.458
118.944
109.904
90.0191
77.7874
76.2637
65.6426
51.0863
54.2169
72.1811
71.0042
71.4648
71.2985
70.366
69.412
70.6654
70.3106
60.0475
-0.244915
1.07746
-0.2043
0.658557
0.0333196
2.60168
0.158297
0.304765
-49.1848
-18.2298
-55.9606
-49.8537
-61.6015
-54.4927
-44.0763
-46.5268
-46.4958
-40.6914
-12.9008
-48.3213
-26.4604
-22.9745
-26.5196
-15.5907
-8.62124
-34.8935
-32.0171
-18.7685
-11.979
-7.54607
0.419716
21.1956
26.5074
-6.50431
5.14202
23.3175
41.9019
33.9851
33.6703
33.3469
33.4102
33.8067
34.0136
33.8126
33.6485
35.0254
31.313
1.42687
1.84168
3.20763
-0.371652
-7.74522
2.94757
-6.0726
24.2767
24.2961
22.1743
29.4325
4.2386
11.9257
12.9063
40.3247
42.2797
35.3505
42.6111
34.0329
40.8499
30.7318
39.0042
-11.9275
-13.4036
-14.0596
23.4206
23.3679
22.0825
45.0092
64.6164
50.2568
60.3043
62.6237
64.6194
53.8008
62.8314
68.0583
67.3272
60.8513
96.8119
129.017
135.397
107.005
168.568
163.128
218.217
125.049
124.377
126.401
125.113
128.758
125.25
127.964
125.276
83.2835
75.8675
102.761
134.917
88.4653
92.0927
106.986
150.044
78.5079
98.6128
124.612
118.089
99.3993
100.232
168.716
134.125
146.022
198.607
186.308
235.339
138.596
209.114
177.329
255.811
197.86
193.481
201.73
196.274
220.446
195.617
226.53
199.363
22.6986
14.3413
23.2377
17.2104
64.5658
34.3768
51.5626
48.3786
50.1302
48.2231
58.8466
51.2949
53.7292
49.6378
29.3571
29.3672
29.1753
29.2586
31.9127
31.4776
30.9146
30.7471
18.0091
18.0958
17.9811
18.0645
18.0565
18.0818
17.9885
18.0223
17.7637
3.41474
27.1514
1.09361
9.29554
15.5058
26.6815
38.0235
23.9671
35.1803
23.7676
32.6309
23.3201
30.0817
4.14069
11.8044
15.232
6.11325
1.92124
14.097
16.7764
8.10597
9.24922
73.9121
53.5199
52.2637
44.8965
183.921
119.242
100.679
72.4902
25.1583
24.9329
24.9712
24.8436
26.4364
25.394
25.2797
24.9702
29.8357
21.9732
186.038
216.57
130.641
190.895
201.862
267.96
186.525
231.788
169.964
90.8669
115.588
69.0226
295.507
190.047
224.704
129.229
129.037
128.839
83.8027
83.9373
150.081
195.15
125.373
114.938
28.1311
27.3515
27.2564
27.2886
33.8329
28.8516
29.041
28.091
10.0028
9.62989
9.90372
9.77562
12.071
11.7108
11.6409
11.5992
15.2752
12.8675
13.2849
12.3559
10.2144
10.236
9.94553
9.62109
10.3796
0.295585
-0.201276
-0.0331722
0.0691461
0.461089
1.83404
-0.140683
1.07783
1.96909
1.6778
1.41546
1.86482
0.33154
1.07249
-6.5981
0.713832
3.16894
3.78539
4.95779
-0.00474796
-1.84803
-0.923702
-0.0202477
1.39634
0.0102169
-0.199296
-2.65279
-0.162643
1.13691
0.00711352
3.15024
-1.95641
-0.512554
1.31668
-0.0728711
3.18953
0.379603
-0.350315
-0.482516
1.76922
-1.35894
0.860106
-2.75064
-20.4964
-6.53965
-5.25012
-1.02594
1.95619
-7.34959
-12.0305
-3.02153
-10.3305
-3.34776
-1.33457
7.41795
9.93866
-17.7656
-20.6406
-17.1919
-23.39
12.2831
-5.78678
-43.675
-51.4393
-38.7639
-53.9098
-49.8933
-58.5606
-59.8612
-79.1565
-61.7486
-60.653
-67.1545
-74.3867
-71.2594
-73.869
-97.7742
-117.104
-39.0283
-34.1364
-14.5028
-12.7229
-4.39544
-2.01481
-34.972
-36.8632
-34.5512
-38.43
-23.0586
-34.1408
-44.9987
-69.7608
-62.7356
-89.2509
-88.9493
-88.6707
-88.1779
-133.823
-142.431
-60.2424
-56.4302
-81.3495
-68.0945
-81.8216
-73.8199
-120.689
-95.6562
-13.0921
-13.4691
-12.705
-13.1605
-12.9368
-13.1345
-13.7211
-13.2471
0.600832
0.786201
2.63845
1.02631
-6.50775
-1.29939
-31.1078
-0.795417
-23.4131
26.4805
27.6005
26.6784
30.2213
5.6204
-14.5909
10.9019
-8.91893
36.4773
35.1072
43.0964
43.7369
-28.2983
-33.6312
-28.5051
-36.8206
13.5812
22.8808
8.66193
17.9846
4.42598
-3.64568
-0.694726
-1.90958
42.9498
47.4497
39.525
42.9984
-21.0108
-30.8701
-13.4669
-21.8725
-41.4019
-80.1906
-26.04
-73.6222
-102.808
-151.776
-94.3544
-153.462
-106.519
-121.847
-113.49
-135.845
-187.649
-198.712
-204.181
-224.394
-19.6174
-57.9769
-19.339
-47.4552
-80.9837
-133.757
-69.9961
-111.626
-102.849
-131.081
-86.3449
-112.637
-191.702
-218.272
-164.164
-188.384
24.757
23.1422
35.4249
35.1837
-45.2387
-47.5939
-43.2159
-46.7481
27.901
31.261
37.7147
41.4682
-50.5772
-43.5688
-51.358
-43.6211
41.2056
41.2614
40.0171
40.1905
-38.658
-44.3826
-31.1249
-37.5235
43.3114
44.9099
42.3841
44.2881
-48.3064
-40.6938
-43.1169
-38.4575
-118.774
-104.268
-136.798
-123.757
-197.113
-176.246
-223.503
-210.913
-83.775
-58.8569
-104.796
-71.9248
-163.529
-127.609
-205.361
-159.197
-135.626
-125.233
-121.614
-113.443
-219.306
-213.408
-196.106
-192.563
-105.588
-68.9424
-97.4942
-62.86
-190.754
-141.468
-177.327
-135.582
21.2066
22.8091
30.2598
32.1235
-35.6283
-19.8289
-46.6384
-28.5064
30.7438
39.1081
38.6014
39.1504
38.859
-49.7906
-36.584
-49.4192
-39.1878
17.275
-56.1438
-51.4841
-75.0078
-59.7454
-103.76
-86.6887
-145.263
-110.251
-40.6768
-75.3609
-51.4953
-72.3117
-48.5366
-156.819
-121.6
-149.98
-122.506
-48.545
0.63159
0.118483
0.908595
0.2576
0.236111
0.158071
-0.196711
-0.0851236
0.691367
0.738077
0.407162
0.7487
-0.0275302
-1.47285
-0.0829152
2.18752
-23.4962
3.74428
13.2747
-2.83874
4.5216
-21.2199
-21.3335
-18.7156
-18.7575
-27.9942
-23.5944
-46.9587
-67.9468
-77.1028
-62.3169
-66.4949
-99.8628
-118.444
-76.8818
-88.5285
-11.3906
-30.4516
19.5754
30.7163
16.2701
26.4866
-21.5719
-25.6969
-17.8517
-21.0412
37.4656
44.2769
33.022
39.2906
-36.4718
-43.1949
-28.7012
-33.1959
-5.42389
0.230121
-93.5208
-97.0103
-78.8625
-80.0328
-138.089
-153.79
-114.396
-126.124
-83.2722
-64.7679
-65.115
-45.5569
-159.621
-147.47
-126.331
-114.378
-56.7176
-56.3098
35.064
35.1547
31.701
32.0798
-43.8289
-34.156
-31.921
-25.0728
18.5585
5.01573
9.17328
-59.6141
-40.6729
-36.9719
-22.2125
-139.979
-108.399
-103.31
-78.656
-41.8607
-39.8083
-27.9004
15.0974
20.1447
-86.2516
-69.7116
-13.9877
-3.30571
-15.2966
23.8313
23.5573
24.4495
24.1562
22.0414
22.7821
23.0893
23.2225
0.1259
0.175503
1.13218
-5.51714
0.384215
0.858234
1.8271
-5.25511
-16.2724
-18.2241
-44.7906
-35.4967
-27.6589
-19.0939
-48.0764
-39.3731
-37.1036
-27.78
-1.63013
10.3866
23.844
49.2417
0.11404
12.9115
20.824
47.31
10.6334
-1.57972
-52.2426
-43.0152
-45.9832
-37.0524
-52.4951
-41.2931
-40.5042
-33.2754
4.38648
20.8352
20.2611
49.6851
6.40269
23.6008
23.6833
51.8253
2.89167
17.4177
58.694
74.2926
-4.62304
4.47585
36.63
47.5771
78.0864
99.1625
39.2051
48.9885
80.5756
103.415
76.8294
67.5971
67.9268
68.7525
68.7301
15.3258
38.1378
53.9856
68.9211
-10.2604
16.7599
38.5299
59.183
65.9202
67.878
67.9355
59.6268
6.39427
23.613
15.4457
83.503
89.9124
84.8772
92.8101
72.4943
86.0532
79.3873
91.5511
6.67168
26.1293
16.7851
53.1437
84.2255
69.6523
88.3791
87.8978
102.8
97.9408
104.153
96.9963
100.282
115.562
147.972
80.999
88.4105
105.553
133.83
104.724
111.624
181.519
191.085
113.108
118.845
189.347
209.979
156.572
230.139
215.683
285.746
160.042
226.542
216.234
279.743
236.77
262.154
302.187
295.031
246.604
256.415
315.555
299.742
58.2755
67.4365
94.4113
117.161
60.7997
68.2508
101.377
118.615
110.76
123.619
182.473
215.564
115.218
128.85
184.415
217.376
213.614
240.173
233.442
273.574
217.647
245.117
238.2
276.438
264.817
265.857
317.289
312.833
281.736
266.701
325.081
313.331
119.721
128.541
148.943
143.743
128.644
134.289
175.944
155.479
122.573
121.634
127.863
126.444
130.122
126.425
135.117
131.072
191.898
186.164
192.185
188.89
214.126
192.985
204.702
192.196
146.251
144.944
146.11
145.327
151.34
147.73
148.792
146.82
118.866
134.341
201.111
184.368
128.662
137.26
220.166
200.703
143.287
140.115
158.534
151.834
144.191
138.862
165.793
154.387
243.083
228.028
246.998
234.724
266.224
231.563
265.919
236.518
176.131
164.374
171.953
164.846
183.175
164.288
174.911
164.006
57.8713
57.7907
57.9671
57.9059
57.941
57.5607
64.2049
58.4991
61.9551
57.7699
67.4253
59.495
63.9377
58.2771
57.779
37.4222
14.5057
77.1902
86.6751
82.5512
87.8671
70.8717
83.6397
72.4546
81.2644
2.30913
41.8646
42.3658
33.1218
35.1597
37.4315
40.4799
29.3773
33.5808
17.0853
65.3975
79.226
63.5154
73.5441
80.4418
89.3701
73.4843
81.3084
3.18889
25.6835
28.6793
17.0603
21.6756
32.3586
33.6839
22.935
25.6674
279.001
309.824
269.65
263.689
279.421
310.052
271.102
281.42
316.091
252.869
274.331
215.653
333.485
283.734
300.304
277.343
182.333
208.131
134.576
168.866
165.09
215.962
129.813
168.367
200.007
188.855
145.417
156.575
250.239
247.93
191.348
190.178
248.913
287.905
235.938
265.656
252.107
286.766
238.164
263.43
331.388
299.766
302.975
298.248
328.171
305.713
302.129
299.931
133.859
178.231
110.177
141.836
138.886
164.258
115.459
139.393
247.933
251.044
183.928
190.045
226.234
230.273
168.053
179.091
98.7135
93.415
94.3111
92.2438
114.24
98.121
102.444
94.7294
52.0017
51.1213
50.4967
49.9073
54.4877
52.6202
51.6223
50.5051
52.4628
50.6955
51.293
50.2811
55.978
51.5938
52.5641
50.6249
36.7309
173.391
150.474
155.177
145.902
191.878
157.419
161.387
148.802
75.8765
71.4761
71.0658
68.5278
79.7741
73.2512
72.4576
69.0677
65.1351
58.541
60.196
57.4848
65.8956
59.9545
60.2231
58.2046
40.2322
20.6713
20.5961
20.5858
20.4735
20.6571
20.47
20.5123
20.3186
17.6723
-0.402725
-1.81275
-0.100092
-0.491521
0.267568
-0.10165
-0.00179697
0.185371
12.7683
-2.38316
-5.82994
-7.11142
-1.23508
-1.79627
-3.87035
-5.24412
-6.25976
-7.86255
-6.75699
-7.89995
-2.78435
-4.84876
-4.64381
-5.88612
-0.999013
-3.24188
-1.22324
-2.09608
-3.31868
-3.6297
-3.4368
-3.31054
-4.55717
-4.19728
0.325147
-0.422907
-1.05656
-1.56765
-1.97513
-1.61056
-2.74661
-2.49075
-3.82349
-3.22081
-1.87372
-2.06347
-1.89477
-2.21135
-1.6287
-1.82021
-1.6401
-1.90408
1.6917
4.61392
0.00399016
-2.25758
-5.29097
-5.11623
-2.49634
0.0170637
0.433616
0.913614
1.45296
1.85173
0.0216356
7.08272
7.22127
3.65734
6.77296
5.16103
5.6863
7.05333
5.95928
1.16722
0.930062
1.50006
1.07506
0.935668
0.981009
0.955351
0.957701
1.29528
1.72902
-0.236109
-12.4068
-3.69691
-33.7535
-41.9253
-36.241
-48.1926
-35.8785
-44.2994
-39.3864
-54.6001
-2.14625
-2.11343
-8.36195
-26.6464
-36.8612
-42.6511
-51.1957
-34.355
-39.6751
-54.8612
-54.0225
7.6923
7.92089
12.6826
8.47745
14.1665
9.90637
13.2025