# vtk DataFile Version 3.0
Gravity effects
ASCII
DATASET UNSTRUCTURED_GRID

POINTS	75	double
5.06245e+06	403931	-322.101
5.06251e+06	403890	-321.241
5.06249e+06	403894	-321.306
5.0625e+06	403882	-321.175
5.06252e+06	403877	-320.671
5.06246e+06	403901	-321.677
5.06248e+06	403890	-321.167
5.0625e+06	403869	-320.498
5.06252e+06	403857	-319.664
5.06244e+06	403905	-321.671
5.06249e+06	403865	-320.277
5.06247e+06	403880	-321.123
5.06246e+06	403884	-321.231
5.06245e+06	403878	-321.093
5.06253e+06	403841	-319.595
5.06247e+06	403872	-320.745
5.06251e+06	403853	-319.466
5.06252e+06	403832	-319.21
5.06251e+06	403846	-319.605
5.06253e+06	403832	-319.513
5.06253e+06	403821	-318.778
5.06252e+06	403821	-318.976
5.0623e+06	403869	-316.939
5.06252e+06	403814	-318.347
5.06232e+06	403781	-315.496
5.06248e+06	403840	-319.683
5.0623e+06	403789	-315.365
5.06234e+06	403898	-318.023
5.06232e+06	403797	-315.925
5.06251e+06	403804	-317.799
5.06247e+06	403851	-320.045
5.06249e+06	403786	-317.18
5.0625e+06	403830	-318.992
5.06239e+06	403904	-319.622
5.0625e+06	403814	-318.33
5.06249e+06	403819	-318.577
5.0623e+06	403794	-315.525
5.06247e+06	403796	-317.879
5.06247e+06	403848	-319.807
5.06249e+06	403832	-319.098
5.06249e+06	403802	-317.893
5.06248e+06	403817	-318.619
5.06244e+06	403870	-320.52
5.0625e+06	403823	-318.751
5.06235e+06	403876	-317.867
5.06245e+06	403804	-317.932
5.06239e+06	403768	-315.546
5.06232e+06	403795	-315.705
5.06231e+06	403854	-316.775
5.06236e+06	403898	-318.64
5.06246e+06	403843	-319.549
5.06246e+06	403847	-319.751
5.06243e+06	403754	-315.066
5.06241e+06	403748	-315.12
5.06247e+06	403755	-315.506
5.06238e+06	403785	-316.264
5.06247e+06	403833	-319.03
5.06232e+06	403846	-316.807
5.06234e+06	403804	-316.376
5.0624e+06	403791	-316.489
5.06245e+06	403838	-319.227
5.06245e+06	403832	-318.974
5.06243e+06	403854	-320.884
5.06243e+06	403842	-320.899
5.06243e+06	403847	-320.889
5.06238e+06	403814	-317.056
5.06242e+06	403858	-319.06
5.06236e+06	403830	-317.302
5.06242e+06	403853	-318.898
5.06235e+06	403866	-317.951
5.06238e+06	403824	-317.421
5.06236e+06	403858	-317.917
5.06237e+06	403836	-317.548
5.06237e+06	403851	-317.817
5.06237e+06	403843	-317.787

CELLS	75	150
1	0
1	1
1	2
1	3
1	4
1	5
1	6
1	7
1	8
1	9
1	10
1	11
1	12
1	13
1	14
1	15
1	16
1	17
1	18
1	19
1	20
1	21
1	22
1	23
1	24
1	25
1	26
1	27
1	28
1	29
1	30
1	31
1	32
1	33
1	34
1	35
1	36
1	37
1	38
1	39
1	40
1	41
1	42
1	43
1	44
1	45
1	46
1	47
1	48
1	49
1	50
1	51
1	52
1	53
1	54
1	55
1	56
1	57
1	58
1	59
1	60
1	61
1	62
1	63
1	64
1	65
1	66
1	67
1	68
1	69
1	70
1	71
1	72
1	73
1	74

CELL_TYPES	75
1
1
1
1
1
1
1
1
1
1
1
1
1
1
1
1
1
1
1
1
1
1
1
1
1
1
1
1
1
1
1
1
1
1
1
1
1
1
1
1
1
1
1
1
1
1
1
1
1
1
1
1
1
1
1
1
1
1
1
1
1
1
1
1
1
1
1
1
1
1
1
1
1
1
1

CELL_DATA	75
SCALARS g_z double 1
LOOKUP_TABLE table0
-0.25651
-0.199412
-0.23358
-0.22228
-0.183114
-0.331236
-0.3481
-0.269545
-0.259072
-0.507549
-0.37237
-0.494646
-0.515277
-0.492397
-0.366604
-0.508225
-0.397318
-0.34083
-0.410855
-0.385033
-0.308412
-0.360035
-0.185296
-0.334652
-0.0254403
-0.498295
-0.0235398
-0.345661
-0.110981
-0.319312
-0.581358
-0.259827
-0.472335
-0.549532
-0.406703
-0.445653
-0.0903332
-0.367468
-0.594163
-0.5217
-0.38007
-0.471796
-0.671162
-0.505455
-0.415005
-0.421413
-0.178322
-0.202027
-0.340714
-0.556525
-0.646359
-0.684608
-0.164567
-0.165473
-0.149819
-0.323777
-0.634803
-0.394178
-0.359429
-0.394456
-0.715028
-0.738981
-0.941988
-0.859572
-0.967432
-0.674403
-0.914035
-0.772885
-0.957964
-0.875942
-0.842659
-1.00987
-1.01285
-1.05375
-1.06054

POINT_DATA	75
SCALARS g_z double 1
LOOKUP_TABLE table0
-0.25651
-0.199412
-0.23358
-0.22228
-0.183114
-0.331236
-0.3481
-0.269545
-0.259072
-0.507549
-0.37237
-0.494646
-0.515277
-0.492397
-0.366604
-0.508225
-0.397318
-0.34083
-0.410855
-0.385033
-0.308412
-0.360035
-0.185296
-0.334652
-0.0254403
-0.498295
-0.0235398
-0.345661
-0.110981
-0.319312
-0.581358
-0.259827
-0.472335
-0.549532
-0.406703
-0.445653
-0.0903332
-0.367468
-0.594163
-0.5217
-0.38007
-0.471796
-0.671162
-0.505455
-0.415005
-0.421413
-0.178322
-0.202027
-0.340714
-0.556525
-0.646359
-0.684608
-0.164567
-0.165473
-0.149819
-0.323777
-0.634803
-0.394178
-0.359429
-0.394456
-0.715028
-0.738981
-0.941988
-0.859572
-0.967432
-0.674403
-0.914035
-0.772885
-0.957964
-0.875942
-0.842659
-1.00987
-1.01285
-1.05375
-1.06054

