# vtk DataFile Version 3.0
Gravity effects
ASCII
DATASET UNSTRUCTURED_GRID

POINTS	75	double
5.06245e+06	403931	-322.101
5.06251e+06	403890	-321.241
5.06249e+06	403894	-321.306
5.0625e+06	403882	-321.175
5.06252e+06	403877	-320.671
5.06246e+06	403901	-321.677
5.06248e+06	403890	-321.167
5.0625e+06	403869	-320.498
5.06252e+06	403857	-319.664
5.06244e+06	403905	-321.671
5.06249e+06	403865	-320.277
5.06247e+06	403880	-321.123
5.06246e+06	403884	-321.231
5.06245e+06	403878	-321.093
5.06253e+06	403841	-319.595
5.06247e+06	403872	-320.745
5.06251e+06	403853	-319.466
5.06252e+06	403832	-319.21
5.06251e+06	403846	-319.605
5.06253e+06	403832	-319.513
5.06253e+06	403821	-318.778
5.06252e+06	403821	-318.976
5.0623e+06	403869	-316.939
5.06252e+06	403814	-318.347
5.06232e+06	403781	-315.496
5.06248e+06	403840	-319.683
5.0623e+06	403789	-315.365
5.06234e+06	403898	-318.023
5.06232e+06	403797	-315.925
5.06251e+06	403804	-317.799
5.06247e+06	403851	-320.045
5.06249e+06	403786	-317.18
5.0625e+06	403830	-318.992
5.06239e+06	403904	-319.622
5.0625e+06	403814	-318.33
5.06249e+06	403819	-318.577
5.0623e+06	403794	-315.525
5.06247e+06	403796	-317.879
5.06247e+06	403848	-319.807
5.06249e+06	403832	-319.098
5.06249e+06	403802	-317.893
5.06248e+06	403817	-318.619
5.06244e+06	403870	-320.52
5.0625e+06	403823	-318.751
5.06235e+06	403876	-317.867
5.06245e+06	403804	-317.932
5.06239e+06	403768	-315.546
5.06232e+06	403795	-315.705
5.06231e+06	403854	-316.775
5.06236e+06	403898	-318.64
5.06246e+06	403843	-319.549
5.06246e+06	403847	-319.751
5.06243e+06	403754	-315.066
5.06241e+06	403748	-315.12
5.06247e+06	403755	-315.506
5.06238e+06	403785	-316.264
5.06247e+06	403833	-319.03
5.06232e+06	403846	-316.807
5.06234e+06	403804	-316.376
5.0624e+06	403791	-316.489
5.06245e+06	403838	-319.227
5.06245e+06	403832	-318.974
5.06243e+06	403854	-320.884
5.06243e+06	403842	-320.899
5.06243e+06	403847	-320.889
5.06238e+06	403814	-317.056
5.06242e+06	403858	-319.06
5.06236e+06	403830	-317.302
5.06242e+06	403853	-318.898
5.06235e+06	403866	-317.951
5.06238e+06	403824	-317.421
5.06236e+06	403858	-317.917
5.06237e+06	403836	-317.548
5.06237e+06	403851	-317.817
5.06237e+06	403843	-317.787

CELLS	75	150
1	0
1	1
1	2
1	3
1	4
1	5
1	6
1	7
1	8
1	9
1	10
1	11
1	12
1	13
1	14
1	15
1	16
1	17
1	18
1	19
1	20
1	21
1	22
1	23
1	24
1	25
1	26
1	27
1	28
1	29
1	30
1	31
1	32
1	33
1	34
1	35
1	36
1	37
1	38
1	39
1	40
1	41
1	42
1	43
1	44
1	45
1	46
1	47
1	48
1	49
1	50
1	51
1	52
1	53
1	54
1	55
1	56
1	57
1	58
1	59
1	60
1	61
1	62
1	63
1	64
1	65
1	66
1	67
1	68
1	69
1	70
1	71
1	72
1	73
1	74

CELL_TYPES	75
1
1
1
1
1
1
1
1
1
1
1
1
1
1
1
1
1
1
1
1
1
1
1
1
1
1
1
1
1
1
1
1
1
1
1
1
1
1
1
1
1
1
1
1
1
1
1
1
1
1
1
1
1
1
1
1
1
1
1
1
1
1
1
1
1
1
1
1
1
1
1
1
1
1
1

CELL_DATA	75
SCALARS g_z double 1
LOOKUP_TABLE table0
-0.259393
-0.200422
-0.237226
-0.227876
-0.186108
-0.340057
-0.347033
-0.272226
-0.267735
-0.504063
-0.380057
-0.497829
-0.497206
-0.529166
-0.374548
-0.51159
-0.396716
-0.370446
-0.413261
-0.385055
-0.315393
-0.362398
-0.186671
-0.337577
-0.0285524
-0.537623
-0.0278906
-0.347464
-0.118867
-0.322394
-0.561327
-0.262922
-0.495509
-0.552505
-0.421321
-0.465827
-0.100148
-0.369478
-0.614482
-0.506441
-0.382088
-0.489606
-0.655431
-0.475681
-0.431186
-0.425446
-0.179018
-0.199069
-0.341294
-0.557448
-0.670793
-0.690475
-0.165316
-0.165926
-0.150927
-0.324355
-0.593383
-0.395691
-0.360228
-0.395458
-0.714576
-0.740062
-0.911246
-0.883384
-0.934075
-0.676933
-0.937525
-0.782131
-0.97431
-0.840793
-0.845374
-1.02036
-0.996312
-1.06086
-1.06246

POINT_DATA	75
SCALARS g_z double 1
LOOKUP_TABLE table0
-0.259393
-0.200422
-0.237226
-0.227876
-0.186108
-0.340057
-0.347033
-0.272226
-0.267735
-0.504063
-0.380057
-0.497829
-0.497206
-0.529166
-0.374548
-0.51159
-0.396716
-0.370446
-0.413261
-0.385055
-0.315393
-0.362398
-0.186671
-0.337577
-0.0285524
-0.537623
-0.0278906
-0.347464
-0.118867
-0.322394
-0.561327
-0.262922
-0.495509
-0.552505
-0.421321
-0.465827
-0.100148
-0.369478
-0.614482
-0.506441
-0.382088
-0.489606
-0.655431
-0.475681
-0.431186
-0.425446
-0.179018
-0.199069
-0.341294
-0.557448
-0.670793
-0.690475
-0.165316
-0.165926
-0.150927
-0.324355
-0.593383
-0.395691
-0.360228
-0.395458
-0.714576
-0.740062
-0.911246
-0.883384
-0.934075
-0.676933
-0.937525
-0.782131
-0.97431
-0.840793
-0.845374
-1.02036
-0.996312
-1.06086
-1.06246

