# vtk DataFile Version 3.0
Gravity inversion using rectangular prisms
ASCII
DATASET UNSTRUCTURED_GRID

POINTS	5460	double
5.06226e+06	403710	-315
5.06226e+06	403710	-295
5.06226e+06	403710	-275
5.06226e+06	403710	-255
5.06226e+06	403710	-235
5.06226e+06	403710	-215
5.06226e+06	403710	-195
5.06226e+06	403710	-175
5.06226e+06	403710	-155
5.06226e+06	403710	-135
5.06226e+06	403710	-115
5.06226e+06	403710	-95
5.06226e+06	403710	-75
5.06226e+06	403730	-315
5.06226e+06	403730	-295
5.06226e+06	403730	-275
5.06226e+06	403730	-255
5.06226e+06	403730	-235
5.06226e+06	403730	-215
5.06226e+06	403730	-195
5.06226e+06	403730	-175
5.06226e+06	403730	-155
5.06226e+06	403730	-135
5.06226e+06	403730	-115
5.06226e+06	403730	-95
5.06226e+06	403730	-75
5.06226e+06	403750	-315
5.06226e+06	403750	-295
5.06226e+06	403750	-275
5.06226e+06	403750	-255
5.06226e+06	403750	-235
5.06226e+06	403750	-215
5.06226e+06	403750	-195
5.06226e+06	403750	-175
5.06226e+06	403750	-155
5.06226e+06	403750	-135
5.06226e+06	403750	-115
5.06226e+06	403750	-95
5.06226e+06	403750	-75
5.06226e+06	403770	-315
5.06226e+06	403770	-295
5.06226e+06	403770	-275
5.06226e+06	403770	-255
5.06226e+06	403770	-235
5.06226e+06	403770	-215
5.06226e+06	403770	-195
5.06226e+06	403770	-175
5.06226e+06	403770	-155
5.06226e+06	403770	-135
5.06226e+06	403770	-115
5.06226e+06	403770	-95
5.06226e+06	403770	-75
5.06226e+06	403790	-315
5.06226e+06	403790	-295
5.06226e+06	403790	-275
5.06226e+06	403790	-255
5.06226e+06	403790	-235
5.06226e+06	403790	-215
5.06226e+06	403790	-195
5.06226e+06	403790	-175
5.06226e+06	403790	-155
5.06226e+06	403790	-135
5.06226e+06	403790	-115
5.06226e+06	403790	-95
5.06226e+06	403790	-75
5.06226e+06	403810	-315
5.06226e+06	403810	-295
5.06226e+06	403810	-275
5.06226e+06	403810	-255
5.06226e+06	403810	-235
5.06226e+06	403810	-215
5.06226e+06	403810	-195
5.06226e+06	403810	-175
5.06226e+06	403810	-155
5.06226e+06	403810	-135
5.06226e+06	403810	-115
5.06226e+06	403810	-95
5.06226e+06	403810	-75
5.06226e+06	403830	-315
5.06226e+06	403830	-295
5.06226e+06	403830	-275
5.06226e+06	403830	-255
5.06226e+06	403830	-235
5.06226e+06	403830	-215
5.06226e+06	403830	-195
5.06226e+06	403830	-175
5.06226e+06	403830	-155
5.06226e+06	403830	-135
5.06226e+06	403830	-115
5.06226e+06	403830	-95
5.06226e+06	403830	-75
5.06226e+06	403850	-315
5.06226e+06	403850	-295
5.06226e+06	403850	-275
5.06226e+06	403850	-255
5.06226e+06	403850	-235
5.06226e+06	403850	-215
5.06226e+06	403850	-195
5.06226e+06	403850	-175
5.06226e+06	403850	-155
5.06226e+06	403850	-135
5.06226e+06	403850	-115
5.06226e+06	403850	-95
5.06226e+06	403850	-75
5.06226e+06	403870	-315
5.06226e+06	403870	-295
5.06226e+06	403870	-275
5.06226e+06	403870	-255
5.06226e+06	403870	-235
5.06226e+06	403870	-215
5.06226e+06	403870	-195
5.06226e+06	403870	-175
5.06226e+06	403870	-155
5.06226e+06	403870	-135
5.06226e+06	403870	-115
5.06226e+06	403870	-95
5.06226e+06	403870	-75
5.06226e+06	403890	-315
5.06226e+06	403890	-295
5.06226e+06	403890	-275
5.06226e+06	403890	-255
5.06226e+06	403890	-235
5.06226e+06	403890	-215
5.06226e+06	403890	-195
5.06226e+06	403890	-175
5.06226e+06	403890	-155
5.06226e+06	403890	-135
5.06226e+06	403890	-115
5.06226e+06	403890	-95
5.06226e+06	403890	-75
5.06226e+06	403910	-315
5.06226e+06	403910	-295
5.06226e+06	403910	-275
5.06226e+06	403910	-255
5.06226e+06	403910	-235
5.06226e+06	403910	-215
5.06226e+06	403910	-195
5.06226e+06	403910	-175
5.06226e+06	403910	-155
5.06226e+06	403910	-135
5.06226e+06	403910	-115
5.06226e+06	403910	-95
5.06226e+06	403910	-75
5.06226e+06	403930	-315
5.06226e+06	403930	-295
5.06226e+06	403930	-275
5.06226e+06	403930	-255
5.06226e+06	403930	-235
5.06226e+06	403930	-215
5.06226e+06	403930	-195
5.06226e+06	403930	-175
5.06226e+06	403930	-155
5.06226e+06	403930	-135
5.06226e+06	403930	-115
5.06226e+06	403930	-95
5.06226e+06	403930	-75
5.06226e+06	403950	-315
5.06226e+06	403950	-295
5.06226e+06	403950	-275
5.06226e+06	403950	-255
5.06226e+06	403950	-235
5.06226e+06	403950	-215
5.06226e+06	403950	-195
5.06226e+06	403950	-175
5.06226e+06	403950	-155
5.06226e+06	403950	-135
5.06226e+06	403950	-115
5.06226e+06	403950	-95
5.06226e+06	403950	-75
5.06226e+06	403970	-315
5.06226e+06	403970	-295
5.06226e+06	403970	-275
5.06226e+06	403970	-255
5.06226e+06	403970	-235
5.06226e+06	403970	-215
5.06226e+06	403970	-195
5.06226e+06	403970	-175
5.06226e+06	403970	-155
5.06226e+06	403970	-135
5.06226e+06	403970	-115
5.06226e+06	403970	-95
5.06226e+06	403970	-75
5.06228e+06	403710	-315
5.06228e+06	403710	-295
5.06228e+06	403710	-275
5.06228e+06	403710	-255
5.06228e+06	403710	-235
5.06228e+06	403710	-215
5.06228e+06	403710	-195
5.06228e+06	403710	-175
5.06228e+06	403710	-155
5.06228e+06	403710	-135
5.06228e+06	403710	-115
5.06228e+06	403710	-95
5.06228e+06	403710	-75
5.06228e+06	403730	-315
5.06228e+06	403730	-295
5.06228e+06	403730	-275
5.06228e+06	403730	-255
5.06228e+06	403730	-235
5.06228e+06	403730	-215
5.06228e+06	403730	-195
5.06228e+06	403730	-175
5.06228e+06	403730	-155
5.06228e+06	403730	-135
5.06228e+06	403730	-115
5.06228e+06	403730	-95
5.06228e+06	403730	-75
5.06228e+06	403750	-315
5.06228e+06	403750	-295
5.06228e+06	403750	-275
5.06228e+06	403750	-255
5.06228e+06	403750	-235
5.06228e+06	403750	-215
5.06228e+06	403750	-195
5.06228e+06	403750	-175
5.06228e+06	403750	-155
5.06228e+06	403750	-135
5.06228e+06	403750	-115
5.06228e+06	403750	-95
5.06228e+06	403750	-75
5.06228e+06	403770	-315
5.06228e+06	403770	-295
5.06228e+06	403770	-285
5.06228e+06	403770	-275
5.06228e+06	403770	-255
5.06228e+06	403770	-235
5.06228e+06	403770	-215
5.06228e+06	403770	-195
5.06228e+06	403770	-175
5.06228e+06	403770	-155
5.06228e+06	403770	-135
5.06228e+06	403770	-115
5.06228e+06	403770	-95
5.06228e+06	403770	-75
5.06228e+06	403780	-295
5.06228e+06	403780	-285
5.06228e+06	403780	-275
5.06228e+06	403790	-315
5.06228e+06	403790	-295
5.06228e+06	403790	-285
5.06228e+06	403790	-275
5.06228e+06	403790	-265
5.06228e+06	403790	-255
5.06228e+06	403790	-235
5.06228e+06	403790	-215
5.06228e+06	403790	-195
5.06228e+06	403790	-175
5.06228e+06	403790	-155
5.06228e+06	403790	-135
5.06228e+06	403790	-115
5.06228e+06	403790	-95
5.06228e+06	403790	-75
5.06228e+06	403800	-295
5.06228e+06	403800	-285
5.06228e+06	403800	-275
5.06228e+06	403800	-265
5.06228e+06	403800	-255
5.06228e+06	403810	-315
5.06228e+06	403810	-295
5.06228e+06	403810	-285
5.06228e+06	403810	-275
5.06228e+06	403810	-265
5.06228e+06	403810	-255
5.06228e+06	403810	-235
5.06228e+06	403810	-215
5.06228e+06	403810	-195
5.06228e+06	403810	-175
5.06228e+06	403810	-155
5.06228e+06	403810	-135
5.06228e+06	403810	-115
5.06228e+06	403810	-95
5.06228e+06	403810	-75
5.06228e+06	403820	-295
5.06228e+06	403820	-285
5.06228e+06	403820	-275
5.06228e+06	403830	-315
5.06228e+06	403830	-295
5.06228e+06	403830	-285
5.06228e+06	403830	-275
5.06228e+06	403830	-255
5.06228e+06	403830	-235
5.06228e+06	403830	-215
5.06228e+06	403830	-195
5.06228e+06	403830	-175
5.06228e+06	403830	-155
5.06228e+06	403830	-135
5.06228e+06	403830	-115
5.06228e+06	403830	-95
5.06228e+06	403830	-75
5.06228e+06	403850	-315
5.06228e+06	403850	-295
5.06228e+06	403850	-275
5.06228e+06	403850	-255
5.06228e+06	403850	-235
5.06228e+06	403850	-215
5.06228e+06	403850	-195
5.06228e+06	403850	-175
5.06228e+06	403850	-155
5.06228e+06	403850	-135
5.06228e+06	403850	-115
5.06228e+06	403850	-95
5.06228e+06	403850	-75
5.06228e+06	403870	-315
5.06228e+06	403870	-295
5.06228e+06	403870	-275
5.06228e+06	403870	-255
5.06228e+06	403870	-235
5.06228e+06	403870	-215
5.06228e+06	403870	-195
5.06228e+06	403870	-175
5.06228e+06	403870	-155
5.06228e+06	403870	-135
5.06228e+06	403870	-115
5.06228e+06	403870	-95
5.06228e+06	403870	-75
5.06228e+06	403890	-315
5.06228e+06	403890	-295
5.06228e+06	403890	-275
5.06228e+06	403890	-255
5.06228e+06	403890	-235
5.06228e+06	403890	-215
5.06228e+06	403890	-195
5.06228e+06	403890	-175
5.06228e+06	403890	-155
5.06228e+06	403890	-135
5.06228e+06	403890	-115
5.06228e+06	403890	-95
5.06228e+06	403890	-75
5.06228e+06	403910	-315
5.06228e+06	403910	-295
5.06228e+06	403910	-275
5.06228e+06	403910	-255
5.06228e+06	403910	-235
5.06228e+06	403910	-215
5.06228e+06	403910	-195
5.06228e+06	403910	-175
5.06228e+06	403910	-155
5.06228e+06	403910	-135
5.06228e+06	403910	-115
5.06228e+06	403910	-95
5.06228e+06	403910	-75
5.06228e+06	403930	-315
5.06228e+06	403930	-295
5.06228e+06	403930	-275
5.06228e+06	403930	-255
5.06228e+06	403930	-235
5.06228e+06	403930	-215
5.06228e+06	403930	-195
5.06228e+06	403930	-175
5.06228e+06	403930	-155
5.06228e+06	403930	-135
5.06228e+06	403930	-115
5.06228e+06	403930	-95
5.06228e+06	403930	-75
5.06228e+06	403950	-315
5.06228e+06	403950	-295
5.06228e+06	403950	-275
5.06228e+06	403950	-255
5.06228e+06	403950	-235
5.06228e+06	403950	-215
5.06228e+06	403950	-195
5.06228e+06	403950	-175
5.06228e+06	403950	-155
5.06228e+06	403950	-135
5.06228e+06	403950	-115
5.06228e+06	403950	-95
5.06228e+06	403950	-75
5.06228e+06	403970	-315
5.06228e+06	403970	-295
5.06228e+06	403970	-275
5.06228e+06	403970	-255
5.06228e+06	403970	-235
5.06228e+06	403970	-215
5.06228e+06	403970	-195
5.06228e+06	403970	-175
5.06228e+06	403970	-155
5.06228e+06	403970	-135
5.06228e+06	403970	-115
5.06228e+06	403970	-95
5.06228e+06	403970	-75
5.06228e+06	403770	-295
5.06228e+06	403770	-285
5.06228e+06	403770	-275
5.06228e+06	403780	-295
5.06228e+06	403780	-285
5.06228e+06	403780	-275
5.06228e+06	403790	-295
5.06228e+06	403790	-285
5.06228e+06	403790	-275
5.06228e+06	403790	-265
5.06228e+06	403790	-255
5.06228e+06	403800	-295
5.06228e+06	403800	-285
5.06228e+06	403800	-275
5.06228e+06	403800	-265
5.06228e+06	403800	-255
5.06228e+06	403810	-295
5.06228e+06	403810	-285
5.06228e+06	403810	-275
5.06228e+06	403810	-265
5.06228e+06	403810	-255
5.06228e+06	403820	-295
5.06228e+06	403820	-285
5.06228e+06	403820	-275
5.06228e+06	403830	-295
5.06228e+06	403830	-285
5.06228e+06	403830	-275
5.0623e+06	403710	-315
5.0623e+06	403710	-295
5.0623e+06	403710	-275
5.0623e+06	403710	-255
5.0623e+06	403710	-235
5.0623e+06	403710	-215
[...]
CELL_DATA	4239
SCALARS model double 1
LOOKUP_TABLE table0
97.5805
185.419
279.999
320.737
305.988
265.109
209.636
154.519
107.494
69.9388
39.7049
20.0833
97.8904
164.278
242.789
281.012
272.486
240.585
193.109
143.66
100.342
65.1696
36.569
17.7566
105.166
145.861
192.239
217.471
214.11
194.971
160.675
121.419
85.209
54.8335
29.6278
12.5779
140.738
186.433
174.638
161.196
149.363
138.663
118.109
91.1776
64.2376
40.3822
19.889
5.31943
195.058
242.242
193.016
131.822
97.4605
86.6526
75.8333
59.828
41.9436
24.7871
9.28508
-2.63756
135.119
214.689
201.358
119.646
68.5889
52.9149
45.5268
35.666
23.8556
11.6501
0.099409
-9.69372
55.0137
159.746
197.26
128.169
70.5083
46.7976
35.4581
24.9742
14.3562
3.90743
-5.7822
-14.5078
20.3445
182.94
250.097
177.355
104.959
67.8794
46.0368
28.923
14.7336
2.66384
-7.53499
-16.4208
19.5416
233.979
316.592
241.129
150.885
101.835
68.7567
42.9337
22.6785
6.82195
-5.63754
-15.6316
-10.9761
195.258
311.275
261.405
178.489
129.025
91.3698
59.412
33.636
13.7225
-1.58103
-13.0553
-45.5403
109.679
246.041
234.396
177.307
139.588
105.343
71.8111
43.0249
20.3315
2.73801
-9.978
-69.7826
42.5877
180.396
193.979
160.139
136.231
108.73
76.9345
47.8094
24.2029
5.54413
-7.74916
-75.7369
26.3288
162.674
180.548
151.662
131.39
106.264
75.6806
47.156
23.8545
5.31508
-7.85505
96.1556
192.842
288.54
324.459
303.78
259.374
202.458
146.978
100.206
63.2461
33.8445
14.7579
90.0174
150.243
232.919
274.726
265.19
231.424
183.051
133.718
91.1377
56.9867
29.5839
11.5301
79.4954
60.7
134.451
187.141
194.784
177.814
144.185
106.395
72.1755
43.8413
20.6382
4.81628
104.831
75.3366
143.587
108.113
144.535
-72.9365
31.4786
-57.3958
18.1244
71.381
104.064
113.717
109.534
91.995
68.7811
45.8771
25.6552
8.35545
-4.31599
272.803
167.76
163.805
201.344
182.68
25.3719
50.1881
104.774
100.386
108.485
149.728
121.884
152.218
35.1269
102.97
63.9839
110.164
64.7908
46.8053
44.1311
38.7551
29.144
17.7409
6.08699
-4.86398
-14.1432
138.861
187.498
177.702
152.093
153.384
130.699
125.379
113.96
114.268
132.87
48.8122
5.88275
-0.970751
-0.830468
-2.06167
-5.28455
-10.3611
-16.1845
-22.696
9.45574
62.7296
116.153
49.6217
2.80424
-12.074
-15.3042
-16.4025
-17.4452
-19.9107
-23.2232
-28.3114
-18.6058
131.81
206.886
114.726
46.3703
13.5275
-2.81035
-11.6929
-16.7579
-21.0077
-24.883
-30.1501
38.2613
272.228
327.346
219.206
109.17
58.2828
26.4241
6.73526
-5.84717
-14.8777
-21.692
-28.4303
-21.2601
206.403
318.31
249.192
149.46
94.6761
56.6535
29.3567
9.63848
-4.79919
-15.4845
-24.2772
-67.3864
76.477
219.587
210.12
149.768
109.858
76.8715
47.7264
23.8103
5.35045
-8.67179
-19.3193
-87.0135
0.327483
138.236
159.657
130.412
108.178
84.3627
57.3815
32.516
12.2932
-3.59712
-15.3194
-90.5569
-13.8546
120.204
144.788
121.073
103.262
82.6301
57.182
32.9009
12.8353
-3.11816
-14.844
99.7661
232.078
327.641
343.196
302.993
248.021
187.227
131.171
85.4048
50.1294
22.7599
4.99118
88.2615
191.494
275.232
295.636
263.766
217.206
163.888
114.121
73.1905
41.4217
16.6796
0.325216
25.4435
19.8397
191.582
-113.341
69.7123
62.7917
225.069
-77.9877
109.844
149.912
195.622
183.126
153.25
114.937
78.3333
47.7879
23.5964
4.45793
-8.85951
209.789
-519.945
254.771
-664.874
45.8763
-666.881
-354.248
-1157.76
-262.233
-55.9659
-362.431
-126.162
-303.729
-29.3738
-533.821
-128.867
-16.5226
176.111
-55.6144
120.246
17.7631
193.304
-25.4144
141.042
80.0663
76.8632
64.7185
45.9639
27.8413
12.2981
-0.910969
-12.0278
-21.0323
640.051
-553.821
303.439
-303.349
-940.812
-1237.85
-99.7063
-464.591
-281.341
-89.1742
-78.2533
16.0693
-465.087
-87.3207
-115.777
50.4076
-33.6602
86.5415
8.6861
80.2166
-23.903
100.635
18.8556
91.2524
-0.48843
-28.0835
-28.8267
-28.3553
-27.0231
-26.2277
-27.3392
-29.6279
-33.9222
83.2237
54.4912
85.4334
71.3026
79.4347
61.7036
119.245
89.0255
108.655
48.2496
-64.3995
-112.377
-102.755
-87.724
-72.0025
-58.3953
-49.6644
-44.5932
-44.9566
-113.783
-74.0144
27.773
44.5927
20.111
43.734
-33.801
-40.6199
-40.5346
-35.7594
-43.4735
-52.5421
-37.0001
-49.1203
-131.471
-147.774
-125.721
-145.677
-144.199
-132.39
-113.779
-94.4457
-75.9117
-62.6084
-53.6852
-51.9316
-184.528
40.9939
127.269
0.298804
-17.1805
51.2792
32.9988
-82.4956
-110.391
-15.4067
-47.3118
-95.9843
-104.704
-100.653
-89.7407
-75.3093
-63.728
-55.2974
-53.6864
97.2944
361.342
334.528
148.144
-5.91571
-39.4533
-60.5076
-63.9726
-59.4835
-54.339
-49.9832
-50.4435
-55.9791
211.491
318.087
205.168
73.9206
17.9704
-15.1477
-29.874
-35.8576
-38.7116
-40.1188
-43.6592
-120.728
-6.38125
161.006
156.417
89.7435
47.4805
19.1723
0.457919
-12.6966
-22.2004
-28.9913
-35.5335
-121.056
-78.1914
64.3201
98.9554
75.4325
54.3345
37.1018
19.7484
3.64533
-9.62297
-19.9493
-28.5416
-117.306
-81.5377
50.5707
84.8605
67.2186
51.2274
37.9274
22.134
6.22078
-7.37203
-18.2043
-27.0793
112.561
295.141
384.009
364.677
295.881
227.055
162.455
107.148
63.9857
31.873
7.82926
-7.83993
136.218
324.456
383.262
340.328
263.282
195.412
135.237
85.7908
48.0834
20.2926
-0.361968
-14.1577
203.867
348.452
343.542
264.128
180.726
122.057
74.962
39.9779
14.9831
-3.08642
-16.4116
-26.1951
263.668
-239.303
93.7651
-442.801
398.834
295.609
492.198
491.087
19.1358
183.544
-84.123
126.538
443.677
423.046
470.43
398.985
267.484
134.739
45.3226
8.73665
-14.7468
-26.4183
-31.7501
-35.2075
-37.858
-41.9015
80.6867
-158.787
575.537
458.187
653.538
814.773
402.091
766.948
55.5802
171.204
296.484
257.435
555.421
399.601
530.24
376.97
163.914
-37.2143
-126.458
-125.908
-117.372
-100.952
-83.3332
-70.048
-60.6927
-58.379
253.138
235.585
126.832
14.3877
0.0486587
-94.9149
49.0631
-66.941
-97.6563
-196.251
-99.8834
-118.511
-186.989
-207.915
-193.213
-220.552
-296.615
-320.739
-192.367
-175.916
-261.205
-246.993
-287.728
-276.791
-366.775
-355.73
-247.88
-205.423
-164.63
-127.374
-99.7446
-80.0801
-72.3454
-53.9773
-22.7542
31.3796
-147.557
-106.488
-87.116
-69.1683
-209.823
-200.316
-96.7049
-147.255
-116.834
-149.438
-220.816
-284.671
-256.5
-302.14
-234.054
-254.966
-235.806
-260.604
-366.294
-384.588
-379.936
-400.347
-293.69
-279.619
-300.245
-290.008
-416.547
-404.346
-430.826
-421.62
-318.429
-250.422
-199.045
-152.261
-117.115
-91.7232
-80.9418
-31.0574
-62.2554
-50.378
241.533
166.023
-103.738
-119.522
271.5
147.599
-22.4004
-81.6652
152.59
43.2231
-159.272
-228.96
43.1013
-85.2488
-186.371
-224.099
-98.0325
-153.832
-328.418
-364.771
-226.382
-288.042
-273.742
-272.23
-224.054
-234.589
-407.083
-406.861
-353.291
-366.088
-298.431
-239.61
-195.725
-152.352
-118.488
-93.3428
-82.5982
183.403
174.871
185.335
255.59
463.169
552.122
382.003
557.33
503.651
354.745
539.507
413.661
635.065
408.867
677.013
487.641
303.677
159.551
365.835
242.081
239.874
65.7353
331.119
173.845
8.36967
-64.263
76.1486
8.77495
-109.348
-191.779
-18.8792
-99.0075
-166.645
-187.622
-114.72
-139.568
-284.284
-308.735
-213.4
-242.663
-195.701
-185.867
-160.975
-130.555
-105.147
-85.4624
-77.5154
-163.958
219.682
283.728
94.5247
-63.3123
-100.919
-118.486
-111.375
-96.3781
-82.5157
-71.0837
-67.5317
-208.176
-115.4
85.4523
76.087
1.06062
-42.8364
-61.8644
-64.0774
-61.1876
-57.8124
-54.57
-55.5384
-158.014
-153.734
-7.06879
31.7235
7.34338
-17.0566
-26.5494
-30.6527
-34.3871
-37.8733
-40.5376
-44.8855
-142.119
-138.211
-11.5057
22.6362
3.77119
-15.4986
-21.0519
-24.2347
-28.6818
-33.3252
-37.1703
-42.2033
96.8276
299.783
387.763
350.33
265.499
190.638
127.358
76.1827
37.8757
10.4272
-9.24964
-22.2588
118.918
361.019
419.083
343.905
238.895
158.583
96.6505
50.7349
18.4154
-3.92977
-19.4705
-30.16
157.324
452.982
421.428
279.941
153.088
76.5398
25.7272
-4.75085
-22.1763
-32.7042
-39.2089
-44.9316
145.112
509.127
466.275
492.322
433.933
385.122
390.027
306.192
329.457
403.947
293.289
324.967
204.07
363.331
277.033
265.087
172.925
213.199
155.602
108.522
45.0853
186.307
129.507
72.1088
10.1619
-20.0736
-62.5592
-84.5934
-86.9349
-80.0302
-72.2965
-65.4637
-64.033
-121.393
349.672
-616.667
9.44353
-255.892
-33.7966
-439.9
-269.165
396.481
353.527
212.044
230.42
109.571
184.386
-73.5265
21.1107
228.711
111.526
74.8035
-34.5598
126.98
38.0836
-50.5087
-133.996
-6.06624
-66.9814
-152.968
-203.936
-68.499
-128.054
-235.796
-283.815
-138.117
-136.951
-267.497
-267.41
-202.58
-207.528
-341.003
-344.122
-243.323
-216.846
-181.637
-144.791
-115.501
-93.413
-83.9676
-83.4492
33.9184
93.4867
-77.344
-87.9802
-166.594
-139.599
-253.894
-327.806
-85.4528
-188.565
-261.724
-345.87
-245.562
-323.931
-451.618
-513.381
-297.07
-331.983
-431.132
-450.137
-411.289
-440.256
-575.674
-581.92
-381.756
-376.713
-479.306
-467.644
-474.881
-469.65
-591.115
-575.309
-426.363
-336.458
-265.245
-201.125
-152.645
-117.156
-100.761
1.51577
-263.261
-123.76
-439.769
11.1161
-368.626
-202.614
-651.97
-252.76
-294.188
-416.142
-425.757
-461.734
-552.479
-716.824
-728.944
-412.779
-464.992
-474.992
-504.189
-638.733
-665.456
-741.426
-733.565
-526.935
-532.48
-557.446
-560.895
-699.037
-684.883
-750.591
-728.454
-545.375
-528.629
-569.569
-554.121
-673.068
-649.612
-707.838
-684.236
-468.296
-430.382
-494.574
-462.686
-573.603
-541.021
-601.972
-574.817
-403.61
-313.183
-233.941
-174.581
-131.321
-110.898
-196.129
-477.695
54.9301
-7.73364
-470.744
-912.432
-718.844
-721.26
-362.305
-354.136
62.3558
-47.9059
-798.334
-714.205
-467.482
-429.367
-388.476
-435.781
-162.915
-275.955
-687.122
-682.099
-464.633
-518.869
-509.47
-528.811
-396.658
-446.103
-712.726
-703.255
-595.677
-617.615
-548.861
-542.258
-490.82
-498.313
-691.242
-676.077
-631.317
-630.238
-485.537
-463.205
-457.568
-450.273
-595.489
-577.102
-557.15
-552.199
-397.835
-312.302
-235.086
-176.276
-132.909
-112.383
800.876
770.58
605.208
784.119
515.504
287.192
528.957
607.147
599.889
307.734
720.412
455.82
174.387
-10.0247
488.708
248.91
89.6044
-90.6844
238.372
48.9937
-171.489
-306.144
44.971
-124.529
-258.113
-336.64
-136.356
-225.822
-438.329
-496.017
-288.155
-367.692
-410.302
-432.001
-321.954
-352.094
-542.76
-556.7
-441.806
-467.301
-395.105
-330.582
-268.347
-207.165
-158.853
-122.361
-105.375
5.59983
238.515
-204.373
-170.259
126.157
254.386
-84.6565
-86.2649
240.558
256.714
111.616
197.64
116.01
123.618
-18.1643
110.753
22.9187
-47.6011
-126.799
-5.95804
-62.5205
-175.722
-255.167
-107.251
-169.185
-232.94
-261.58
-166.118
-191.134
-343.764
-373.63
-259.661
-288.35
-245.474
-237.285
-201.572
-161.673
-128.842
-103.283
-92.0856
-215.628
-113.159
25.3025
-14.8243
-95.4695
-146.372
-152.714
-134.783
-113.282
-95.3946
-81.1376
-76.1035
-154.652
-143.908
-25.6231
-15.7165
-56.0762
-92.1098
-94.9462
-84.7443
-74.8104
-67.5138
-61.8603
-61.6734
-136.833
-127.265
-24.0188
-16.7928
-52.2957
-83.2835
-83.1579
-73.4059
-65.5055
-60.4297
-56.7575
-57.7164
53.2804
216.743
310.731
284.343
206.707
139.486
84.9155
41.6768
10.1227
-11.7373
-26.6109
-36.7858
63.2605
254.133
338.233
281.26
181.416
106.557
51.5963
13.1147
-12.1073
-28.2871
-38.4495
-45.9614
72.0552
281.287
332.442
219.06
89.0891
17.6368
-27.0735
-49.6989
-58.5157
-61.3065
-61.1093
-62.9143
-7.25513
145.772
296.853
235.159
188.259
120.74
246.184
192.709
142.429
79.0482
148.351
93.8512
25.3225
-34.3397
110.322
56.653
-14.9838
-74.5141
-3.33209
-22.5748
-123.286
-144.391
-39.8802
-61.7176
-161.43
-185.679
-142.444
-152.873
-144.05
-125.076
-106.794
-91.1646
-84.706
-97.0314
-14.1496
60.1153
-132.009
-96.8276
26.6891
33.7218
-62.3075
-113.137
37.4992
-32.5592
-151.508
-223.742
-3.11442
-77.8322
-193.781
-278.05
-130.291
-186.656
-315.347
-359.064
-176.948
-233.964
-372.622
-417.103
-259.214
-274.722
-408.951
-415.662
-303.901
-324.082
-462.077
-472.195
-364.135
-308.216
-254.716
-200.309
-156.641
-123.152
-107.358
77.2853
-313.257
117.514
-343.143
69.539
-247.475
-77.298
-435.291
-232.665
-276.976
-397.998
-508.028
-208.597
-318.316
-481.358
-600.236
-370.332
-439.731
-611.122
-659.434
-431.088
-511.469
-702.65
-754.378
-514.467
-536.536
-704.91
-699.346
-587.539
-608.826
-797.014
-787.442
-558.179
-552.357
-690.234
-671.699
-621.927
-618.772
-765.452
-750.066
-493.322
-460.222
-592.134
-563.818
-553.305
-530.489
-652.924
-636.647
-453.29
-354.605
-266.581
-199.728
-150.312
-126.333
-63.8417
-554.789
-234.383
-823.808
-446.123
-782.739
-354.921
-914.549
-686.052
-780.611
-979.215
-999.033
-832.748
-910.064
-1088.52
-1135.45
-838.914
-843.935
-981.83
-942.121
-960.217
-963.052
-1125.81
-1083.14
-853.96
-821.939
-927.278
-881.186
-965.576
-925.584
-1056.39
-998.239
-786.087
-759.228
-830.131
-803.366
-871.775
-850.452
-921.342
-904.163
-660.203
-636.212
-691.672
-672.124
-723.899
-716.962
-754.929
-752.43
-541.214
-414.05
-305.908
-225.275
-166.381
-137.575
-384.719
-1077.18
-766.088
-1132.65
-305.117
-960.117
-421.017
-958.689
-1121.38
-1035.31
-931.813
-809.937
-1174.3
-1179.61
-1032.83
-998.519
-964.858
-913.654
-767.185
-759.212
-1131.77
-1074.02
-961.628
-933.831
-903.535
-865.207
-788.998
-780.181
-1046.2
-991.792
-938.484
-910.194
-816.778
-799.098
-758.489
-753.436
-902.698
-900.019
-851.846
-858.61
-687.361
-674.519
-649.1
-644.983
-752.395
-754.956
-718.189
-727.041
-540.985
-415.572
-307.877
-227.049
-167.738
-138.729
-208.071
-474.693
83.0714
11.7353
-248.383
-619.538
-92.7363
-275.214
-389.815
-402.996
38.4955
-61.4716
-640.175
-645.566
-238.473
-289.659
-464.173
-532.597
-192.519
-313.599
-673.65
-707.821
-379.081
-467.859
-619.612
-649.627
-444.43
-504.774
-765.266
-775.151
-573.459
-617.831
-667.473
-674.41
-556.648
-575.744
-770.824
-777.389
-653.681
-669.087
-577.7
-579.559
-507.011
-518.879
-647.466
-661.712
-576.282
-598.571
-462.074
-363.804
-274.584
-205.943
-154.728
-129.914
-93.0492
102.306
77.82
87.3163
110.874
-27.4859
-62.2968
44.881
35.696
-36.1055
-157.002
18.3757
-68.2695
-165.006
-272.259
-49.3941
-140.394
-301.546
-372.645
-205.486
-268.06
-403.707
-466.697
-276.047
-337.984
-445.704
-473.169
-348.343
-378.342
-530.15
-554.755
-415.535
-444.807
-373.095
-345.182
-281.67
-219.036
-169.36
-131.448
-113.65
-99.027
-0.952842
19.7391
-104.609
-186.767
-239.38
-233.615
-196.891
-158.734
-128.102
-104.294
-94.1254
-97.1142
-43.2556
18.4085
-34.9349
-104.037
-155.085
-153.405
-131.177
-109.583
-93.0794
-80.3496
-76.353
-96.4692
-50.3864
15.175
-27.0607
-91.083
-138.166
-135.109
-115.049
-96.8983
-83.6657
-73.6751
-71.2524
-2.43949
95.0401
194.96
194.144
137.041
84.9176
42.7642
8.96903
-15.5212
-31.984
-42.4447
-50.0679
-0.918477
116.215
217.983
192.867
113.89
52.3592
8.63276
-21.0177
-39.1975
-49.7684
-55.2447
-60.0343
59.67
181.931
237.658
145.718
27.3885
-37.8733
-72.6914
-87.1873
-88.6018
-85.1273
-79.592
-78.297
-17.6554
162.322
218.106
157.591
132.029
58.1968
214.909
146.011
142.966
58.0287
80.2526
23.962
-40.1548
-103.376
65.3416
4.68363
-49.0658
-117.837
-68.3831
-92.792
-188.968
-216.431
-86.6944
-113.438
-203.987
-234.728
-210.172
-204.735
-187.335
-159.673
-133.828
-111.791
-101.651
80.5786
105.786
46.0446
36.7011
-80.1876
180.397
86.9468
99.0412
-40.5736
-1.27208
-92.7965
-189.035
-294.413
20.6885
-85.1535
-164.112
-284.287
-201.445
-263.701
-400.714
-451.255
-205.634
-274.838
-403.081
-461.45
-333.055
-357.353
-494.659
-510.045
-345.418
-374.786
-505.288
-527.94
-353.742
-350.977
-475.233
-473.037
-378.262
-384.359
-488.474
-495.155
-370.386
-305.976
-240.397
-187.258
-145.991
-125.813
168.938
-109.686
-3.06462
-340.934
108.716
-59.1053
-12.4815
-247.475
-134.458
-297.146
-445.064
-599.512
-83.6027
-261.542
-371.235
-553.556
-435.768
-536.139
-721.27
-790.508
-411.782
-526.533
-693.484
-780.551
-623.35
-650.367
-842.855
-838.063
-626.124
-661.585
-846.67
-851.514
-659.488
-663.418
-809.16
-804.405
-668.654
-683.334
-817.05
-828.849
-590.97
-584.912
-685.402
-688.439
-606.695
-610.085
-699.299
-712.148
-529.116
-414.321
-311.895
-233.466
-174.918
-145.897
-259.086
-666.94
-275.31
-781.217
-141.464
-470.913
-171.816
-551.932
-791.511
-909.814
-999.665
-1113.37
-657.304
-831.649
-806.514
-994.672
-986.141
-1009.35
-1152
-1137.91
-944.784
-995.734
-1092.94
-1119.85
-1021.68
-985.74
-1122.17
-1067.38
-1026.12
-1002.16
-1127.66
-1086.91
-923
-919.37
-975.393
-985.68
-937.949
-958.51
-986.295
-1021
-823.917
-629.11
-479.85
-354.497
-260.696
-191.769
-157.517
-244.11
-758.316
-243.067
-682.586
-147.895
-508.725
-119.74
-415.661
-1027.39
-1140.59
-888.083
-981.45
-791.844
-995.116
-654.089
-846.155
-1163.01
-1139.03
-1012.83
-1012.24
-1095.21
-1121.52
-956.398
-1004.34
-1121.25
-1069.35
-1021.49
-992.435
-1130.27
-1092.78
-1037.47
-1020.45
-971.78
-817.55
-632.342
-482.376
-356.368
-261.961
-192.54
-158.103
-170.85
-473.17
-74.1948
-219.399
-80.2094
-271.78
-22.608
-95.1072
-595.94
-684.478
-264.267
-358.327
-428.408
-597.544
-169.96
-321.834
-750.771
-796.82
-462.961
-554.713
-722.93
-804.951
-462.86
-576.743
-851.495
-856.595
-654.242
-693.268
-875.939
-888.77
-684.766
-727.478
-848.805
-860.293
-724.262
-740.408
-884.969
-899.67
-759.634
-777.142
-679.441
-546.58
-425.462
-319.15
-237.979
-177.515
-147.759
168.984
-18.3064
-105.301
102.051
41.6589
46.4571
-92.6626
157.038
50.2531
-225.571
-341.071
-66.9945
-180.837
-237.941
-368.264
-78.0187
-204.267
-468.759
-529.747
-314.931
-381.42
-500.05
-562.776
-342.837
-411.396
-591.948
-615.996
-468.999
-498.943
-624.689
-648.8
-496.499
-526.287
-471.836
-414.597
-333.184
-256.639
-196.67
-151.108
-129.222
68.4655
150.753
28.1121
-73.341
68.2703
-3.35484
15.8858
-90.1717
55.3517
-18.02
-189.227
-247.535
-108.672
-153.129
-220.812
-281.916
-138.159
-185.321
-244.947
-303
-284.624
-236.144
-188.082
-149.893
-120.337
-107.084
-36.9969
45.1605
57.9519
-36.1715
-130.733
-193.211
-188.219
-159.401
-131.444
-109.827
-93.049
-86.8811
-58.722
10.3079
49.9124
-23.6654
-109.796
-169.159
-164.941
-139.757
-116.31
-98.7256
-85.2238
-80.9335
-53.3198
4.1819
108.592
124.64
82.6865
42.1503
9.66653
-16.6484
-35.73
-48.1577
-55.3504
-61.0899
-104.953
7.93038
133.9
129.364
64.8114
12.9347
-23.0338
-46.0844
-59.3141
-66.0632
-68.3508
-71.2847
-14.8444
120.847
191.605
106.499
-7.35347
-68.7672
-101.383
-111.133
-108.473
-101.55
-92.951
-89.8411
60.0146
224.776
210.514
139.979
156.901
70.1169
208.097
155.039
166.898
96.9018
57.0664
-7.93693
-46.6401
-120.027
60.0108
-6.14751
-35.6113
-110.417
-98.4889
-127.166
-207.359
-240.854
-104.984
-133.215
-199.093
-232.486
-223.411
-229.711
-209.874
-179.188
-150.316
-125.347
-113.433
87.7367
211.948
115.57
106.872
-20.6071
211.064
130.227
89.871
-13.0755
44.0466
-65.1822
-138.388
-260.096
65.3672
-37.384
-113.332
-227.358
-195.333
-269.96
-386.869
-451.341
-175.176
-252.067
-357.7
-425.383
-342.3
-376.839
-496.125
-526.802
-326.113
-363.525
-472.754
-509.606
-446.895
-392.463
-327.198
-259.484
-203.668
-159.584
-137.67
45.7394
-55.7224
-40.4113
-225.567
0.0726041
-92.3376
-78.9006
-260.923
-87.3048
-244.26
-344.483
-517.786
-115.971
-239.827
-367.269
-504.51
-382.73
-497.82
-652.343
-743.857
-352.539
-457.379
-610.574
-692.037
-604.573
-647.219
-819.085
-833.506
-565.767
-613.075
-769.435
-791.042
-651.211
-678.215
-780.488
-813.443
-620.758
-657.064
-744.181
-788.082
-604.979
-612.518
-697.502
-717.261
-596.07
-613.829
-680.593
-709.167
-548.702
-434.429
-330.406
-249.53
-188.278
-157.579
-112.715
-372.544
-110.62
-386.26
-149.673
-401.879
-123.668
-384.251
-567.488
-756.657
-650.098
-873.904
-573.106
-723.082
-623.949
-811.243
-881.156
-946.744
-1003.31
-1058
-820.466
-879.903
-919.682
-975.536
-991.603
-981.899
-1087.23
-1064.44
-930.308
-931.621
-1015.71
-1007.71
-945.699
-817.394
-647.166
-498.852
-372.077
-275.99
-204.527
-168.705
-47.5722
-286.902
-19.5411
-190.546
39.429
-191.219
44.2704
-62.4975
-583.568
-840.244
-439.193
-689.951
-503.219
-744.522
-322.775
-576.648
-988.01
-1052.8
-852.017
-940.578
-884.454
-959.591
-742.922
-848.01
-1088.13
-1069.51
-1000.25
-1000.71
-1011.23
-1009.68
-926.165
-943.362
-937.508
-809.059
-649.504
-499.909
-372.425
-275.939
-204.269
-168.454
-3.14844
-103.221
16.8941
-1.96004
36.157
-7.19334
36.0081
39.2874
-264.222
-480.197
-83.0999
-264.535
-163.211
-385.891
-47.9902
-227.918
-644.776
-758.804
-423.742
-554.809
-553.997
-682.036
-373.605
-506.365
-850.112
-876.065
-673.469
-723.171
-788.165
-826.997
-630.612
-686.404
-876.824
-895.21
-759.144
-779.092