# vtk DataFile Version 3.0
Gravity effects
ASCII
DATASET UNSTRUCTURED_GRID

POINTS	3721	double
0	0	-0.1
100	0	-0.1
200	0	-0.1
300	0	-0.1
400	0	-0.1
500	0	-0.1
600	0	-0.1
700	0	-0.1
800	0	-0.1
900	0	-0.1
1000	0	-0.1
1100	0	-0.1
1200	0	-0.1
1300	0	-0.1
1400	0	-0.1
1500	0	-0.1
1600	0	-0.1
1700	0	-0.1
1800	0	-0.1
1900	0	-0.1
2000	0	-0.1
2100	0	-0.1
2200	0	-0.1
2300	0	-0.1
2400	0	-0.1
2500	0	-0.1
2600	0	-0.1
2700	0	-0.1
2800	0	-0.1
2900	0	-0.1
3000	0	-0.1
3100	0	-0.1
3200	0	-0.1
3300	0	-0.1
3400	0	-0.1
3500	0	-0.1
3600	0	-0.1
3700	0	-0.1
3800	0	-0.1
3900	0	-0.1
4000	0	-0.1
4100	0	-0.1
4200	0	-0.1
4300	0	-0.1
4400	0	-0.1
4500	0	-0.1
4600	0	-0.1
4700	0	-0.1
4800	0	-0.1
4900	0	-0.1
5000	0	-0.1
5100	0	-0.1
5200	0	-0.1
5300	0	-0.1
5400	0	-0.1
5500	0	-0.1
5600	0	-0.1
5700	0	-0.1
5800	0	-0.1
5900	0	-0.1
6000	0	-0.1
0	100	-0.1
100	100	-0.1
200	100	-0.1
300	100	-0.1
400	100	-0.1
500	100	-0.1
600	100	-0.1
700	100	-0.1
800	100	-0.1
900	100	-0.1
1000	100	-0.1
1100	100	-0.1
1200	100	-0.1
1300	100	-0.1
1400	100	-0.1
1500	100	-0.1
1600	100	-0.1
1700	100	-0.1
1800	100	-0.1
1900	100	-0.1
2000	100	-0.1
2100	100	-0.1
2200	100	-0.1
2300	100	-0.1
2400	100	-0.1
2500	100	-0.1
2600	100	-0.1
2700	100	-0.1
2800	100	-0.1
2900	100	-0.1
3000	100	-0.1
3100	100	-0.1
3200	100	-0.1
3300	100	-0.1
3400	100	-0.1
3500	100	-0.1
3600	100	-0.1
3700	100	-0.1
3800	100	-0.1
3900	100	-0.1
4000	100	-0.1
4100	100	-0.1
4200	100	-0.1
4300	100	-0.1
4400	100	-0.1
4500	100	-0.1
4600	100	-0.1
4700	100	-0.1
4800	100	-0.1
4900	100	-0.1
5000	100	-0.1
5100	100	-0.1
5200	100	-0.1
5300	100	-0.1
5400	100	-0.1
5500	100	-0.1
5600	100	-0.1
5700	100	-0.1
5800	100	-0.1
5900	100	-0.1
6000	100	-0.1
0	200	-0.1
100	200	-0.1
200	200	-0.1
300	200	-0.1
400	200	-0.1
500	200	-0.1
600	200	-0.1
700	200	-0.1
800	200	-0.1
900	200	-0.1
1000	200	-0.1
1100	200	-0.1
1200	200	-0.1
1300	200	-0.1
1400	200	-0.1
1500	200	-0.1
1600	200	-0.1
1700	200	-0.1
1800	200	-0.1
1900	200	-0.1
2000	200	-0.1
2100	200	-0.1
2200	200	-0.1
2300	200	-0.1
2400	200	-0.1
2500	200	-0.1
2600	200	-0.1
2700	200	-0.1
2800	200	-0.1
2900	200	-0.1
3000	200	-0.1
3100	200	-0.1
3200	200	-0.1
3300	200	-0.1
3400	200	-0.1
3500	200	-0.1
3600	200	-0.1
3700	200	-0.1
3800	200	-0.1
3900	200	-0.1
4000	200	-0.1
4100	200	-0.1
4200	200	-0.1
4300	200	-0.1
4400	200	-0.1
4500	200	-0.1
4600	200	-0.1
4700	200	-0.1
4800	200	-0.1
4900	200	-0.1
5000	200	-0.1
5100	200	-0.1
5200	200	-0.1
5300	200	-0.1
5400	200	-0.1
5500	200	-0.1
5600	200	-0.1
5700	200	-0.1
5800	200	-0.1
5900	200	-0.1
6000	200	-0.1
0	300	-0.1
100	300	-0.1
200	300	-0.1
300	300	-0.1
400	300	-0.1
500	300	-0.1
600	300	-0.1
700	300	-0.1
800	300	-0.1
900	300	-0.1
1000	300	-0.1
1100	300	-0.1
1200	300	-0.1
1300	300	-0.1
1400	300	-0.1
1500	300	-0.1
1600	300	-0.1
1700	300	-0.1
1800	300	-0.1
1900	300	-0.1
2000	300	-0.1
2100	300	-0.1
2200	300	-0.1
2300	300	-0.1
2400	300	-0.1
2500	300	-0.1
2600	300	-0.1
2700	300	-0.1
2800	300	-0.1
2900	300	-0.1
3000	300	-0.1
3100	300	-0.1
3200	300	-0.1
3300	300	-0.1
3400	300	-0.1
3500	300	-0.1
3600	300	-0.1
3700	300	-0.1
3800	300	-0.1
3900	300	-0.1
4000	300	-0.1
4100	300	-0.1
4200	300	-0.1
4300	300	-0.1
4400	300	-0.1
4500	300	-0.1
4600	300	-0.1
4700	300	-0.1
4800	300	-0.1
4900	300	-0.1
5000	300	-0.1
5100	300	-0.1
5200	300	-0.1
5300	300	-0.1
5400	300	-0.1
5500	300	-0.1
5600	300	-0.1
5700	300	-0.1
5800	300	-0.1
5900	300	-0.1
6000	300	-0.1
0	400	-0.1
100	400	-0.1
200	400	-0.1
300	400	-0.1
400	400	-0.1
500	400	-0.1
600	400	-0.1
700	400	-0.1
800	400	-0.1
900	400	-0.1
1000	400	-0.1
1100	400	-0.1
1200	400	-0.1
1300	400	-0.1
1400	400	-0.1
1500	400	-0.1
1600	400	-0.1
1700	400	-0.1
1800	400	-0.1
1900	400	-0.1
2000	400	-0.1
2100	400	-0.1
2200	400	-0.1
2300	400	-0.1
2400	400	-0.1
2500	400	-0.1
2600	400	-0.1
2700	400	-0.1
2800	400	-0.1
2900	400	-0.1
3000	400	-0.1
3100	400	-0.1
3200	400	-0.1
3300	400	-0.1
3400	400	-0.1
3500	400	-0.1
3600	400	-0.1
3700	400	-0.1
3800	400	-0.1
3900	400	-0.1
4000	400	-0.1
4100	400	-0.1
4200	400	-0.1
4300	400	-0.1
4400	400	-0.1
4500	400	-0.1
4600	400	-0.1
4700	400	-0.1
4800	400	-0.1
4900	400	-0.1
5000	400	-0.1
5100	400	-0.1
5200	400	-0.1
5300	400	-0.1
5400	400	-0.1
5500	400	-0.1
5600	400	-0.1
5700	400	-0.1
5800	400	-0.1
5900	400	-0.1
6000	400	-0.1
0	500	-0.1
100	500	-0.1
200	500	-0.1
300	500	-0.1
400	500	-0.1
500	500	-0.1
600	500	-0.1
700	500	-0.1
800	500	-0.1
900	500	-0.1
1000	500	-0.1
1100	500	-0.1
1200	500	-0.1
1300	500	-0.1
1400	500	-0.1
1500	500	-0.1
1600	500	-0.1
1700	500	-0.1
1800	500	-0.1
1900	500	-0.1
2000	500	-0.1
2100	500	-0.1
2200	500	-0.1
2300	500	-0.1
2400	500	-0.1
2500	500	-0.1
2600	500	-0.1
2700	500	-0.1
2800	500	-0.1
2900	500	-0.1
3000	500	-0.1
3100	500	-0.1
3200	500	-0.1
3300	500	-0.1
3400	500	-0.1
3500	500	-0.1
3600	500	-0.1
3700	500	-0.1
3800	500	-0.1
3900	500	-0.1
4000	500	-0.1
4100	500	-0.1
4200	500	-0.1
4300	500	-0.1
4400	500	-0.1
4500	500	-0.1
4600	500	-0.1
4700	500	-0.1
4800	500	-0.1
4900	500	-0.1
5000	500	-0.1
5100	500	-0.1
5200	500	-0.1
5300	500	-0.1
5400	500	-0.1
5500	500	-0.1
5600	500	-0.1
5700	500	-0.1
5800	500	-0.1
5900	500	-0.1
6000	500	-0.1
0	600	-0.1
100	600	-0.1
200	600	-0.1
300	600	-0.1
400	600	-0.1
500	600	-0.1
600	600	-0.1
700	600	-0.1
800	600	-0.1
900	600	-0.1
1000	600	-0.1
1100	600	-0.1
1200	600	-0.1
1300	600	-0.1
1400	600	-0.1
1500	600	-0.1
1600	600	-0.1
1700	600	-0.1
1800	600	-0.1
1900	600	-0.1
2000	600	-0.1
2100	600	-0.1
2200	600	-0.1
2300	600	-0.1
2400	600	-0.1
2500	600	-0.1
2600	600	-0.1
2700	600	-0.1
2800	600	-0.1
2900	600	-0.1
3000	600	-0.1
3100	600	-0.1
3200	600	-0.1
3300	600	-0.1
3400	600	-0.1
3500	600	-0.1
3600	600	-0.1
3700	600	-0.1
3800	600	-0.1
3900	600	-0.1
4000	600	-0.1
4100	600	-0.1
4200	600	-0.1
4300	600	-0.1
4400	600	-0.1
4500	600	-0.1
4600	600	-0.1
4700	600	-0.1
4800	600	-0.1
4900	600	-0.1
5000	600	-0.1
5100	600	-0.1
5200	600	-0.1
5300	600	-0.1
5400	600	-0.1
5500	600	-0.1
5600	600	-0.1
5700	600	-0.1
5800	600	-0.1
5900	600	-0.1
6000	600	-0.1
0	700	-0.1
100	700	-0.1
200	700	-0.1
300	700	-0.1
400	700	-0.1
500	700	-0.1
600	700	-0.1
700	700	-0.1
800	700	-0.1
900	700	-0.1
1000	700	-0.1
1100	700	-0.1
1200	700	-0.1
1300	700	-0.1
1400	700	-0.1
1500	700	-0.1
1600	700	-0.1
1700	700	-0.1
1800	700	-0.1
1900	700	-0.1
2000	700	-0.1
2100	700	-0.1
2200	700	-0.1
2300	700	-0.1
2400	700	-0.1
2500	700	-0.1
2600	700	-0.1
2700	700	-0.1
2800	700	-0.1
2900	700	-0.1
3000	700	-0.1
3100	700	-0.1
3200	700	-0.1
3300	700	-0.1
3400	700	-0.1
3500	700	-0.1
3600	700	-0.1
3700	700	-0.1
3800	700	-0.1
3900	700	-0.1
4000	700	-0.1
4100	700	-0.1
4200	700	-0.1
4300	700	-0.1
4400	700	-0.1
4500	700	-0.1
4600	700	-0.1
4700	700	-0.1
4800	700	-0.1
4900	700	-0.1
5000	700	-0.1
5100	700	-0.1
5200	700	-0.1
5300	700	-0.1
5400	700	-0.1
5500	700	-0.1
5600	700	-0.1
5700	700	-0.1
5800	700	-0.1
5900	700	-0.1
6000	700	-0.1
0	800	-0.1
100	800	-0.1
200	800	-0.1
300	800	-0.1
400	800	-0.1
500	800	-0.1
600	800	-0.1
700	800	-0.1
800	800	-0.1
900	800	-0.1
1000	800	-0.1
1100	800	-0.1
1200	800	-0.1
1300	800	-0.1
1400	800	-0.1
1500	800	-0.1
1600	800	-0.1
1700	800	-0.1
1800	800	-0.1
1900	800	-0.1
2000	800	-0.1
2100	800	-0.1
2200	800	-0.1
2300	800	-0.1
2400	800	-0.1
2500	800	-0.1
2600	800	-0.1
2700	800	-0.1
2800	800	-0.1
2900	800	-0.1
3000	800	-0.1
3100	800	-0.1
3200	800	-0.1
3300	800	-0.1
3400	800	-0.1
3500	800	-0.1
3600	800	-0.1
3700	800	-0.1
3800	800	-0.1
3900	800	-0.1
4000	800	-0.1
4100	800	-0.1
4200	800	-0.1
4300	800	-0.1
4400	800	-0.1
4500	800	-0.1
4600	800	-0.1
4700	800	-0.1
4800	800	-0.1
4900	800	-0.1
5000	800	-0.1
5100	800	-0.1
5200	800	-0.1
5300	800	-0.1
5400	800	-0.1
5500	800	-0.1
5600	800	-0.1
5700	800	-0.1
5800	800	-0.1
5900	800	-0.1
6000	800	-0.1
0	900	-0.1
100	900	-0.1
200	900	-0.1
300	900	-0.1
400	900	-0.1
500	900	-0.1
600	900	-0.1
700	900	-0.1
800	900	-0.1
900	900	-0.1
1000	900	-0.1
1100	900	-0.1
1200	900	-0.1
1300	900	-0.1
1400	900	-0.1
1500	900	-0.1
1600	900	-0.1
1700	900	-0.1
1800	900	-0.1
1900	900	-0.1
2000	900	-0.1
2100	900	-0.1
2200	900	-0.1
2300	900	-0.1
2400	900	-0.1
2500	900	-0.1
2600	900	-0.1
2700	900	-0.1
2800	900	-0.1
2900	900	-0.1
3000	900	-0.1
3100	900	-0.1
3200	900	-0.1
3300	900	-0.1
3400	900	-0.1
3500	900	-0.1
3600	900	-0.1
3700	900	-0.1
3800	900	-0.1
3900	900	-0.1
4000	900	-0.1
4100	900	-0.1
4200	900	-0.1
4300	900	-0.1
4400	900	-0.1
4500	900	-0.1
4600	900	-0.1
4700	900	-0.1
4800	900	-0.1
4900	900	-0.1
5000	900	-0.1
5100	900	-0.1
5200	900	-0.1
5300	900	-0.1
5400	900	-0.1
5500	900	-0.1
5600	900	-0.1
5700	900	-0.1
5800	900	-0.1
5900	900	-0.1
6000	900	-0.1
0	1000	-0.1
100	1000	-0.1
200	1000	-0.1
300	1000	-0.1
400	1000	-0.1
500	1000	-0.1
600	1000	-0.1
700	1000	-0.1
800	1000	-0.1
900	1000	-0.1
1000	1000	-0.1
1100	1000	-0.1
1200	1000	-0.1
1300	1000	-0.1
1400	1000	-0.1
1500	1000	-0.1
1600	1000	-0.1
1700	1000	-0.1
1800	1000	-0.1
1900	1000	-0.1
2000	1000	-0.1
2100	1000	-0.1
2200	1000	-0.1
2300	1000	-0.1
2400	1000	-0.1
2500	1000	-0.1
2600	1000	-0.1
2700	1000	-0.1
2800	1000	-0.1
2900	1000	-0.1
3000	1000	-0.1
3100	1000	-0.1
3200	1000	-0.1
3300	1000	-0.1
3400	1000	-0.1
3500	1000	-0.1
3600	1000	-0.1
3700	1000	-0.1
3800	1000	-0.1
3900	1000	-0.1
4000	1000	-0.1
4100	1000	-0.1
4200	1000	-0.1
4300	1000	-0.1
4400	1000	-0.1
4500	1000	-0.1
4600	1000	-0.1
4700	1000	-0.1
4800	1000	-0.1
4900	1000	-0.1
5000	1000	-0.1
5100	1000	-0.1
5200	1000	-0.1
5300	1000	-0.1
5400	1000	-0.1
5500	1000	-0.1
5600	1000	-0.1
5700	1000	-0.1
5800	1000	-0.1
5900	1000	-0.1
6000	1000	-0.1
0	1100	-0.1
100	1100	-0.1
200	1100	-0.1
300	1100	-0.1
400	1100	-0.1
500	1100	-0.1
600	1100	-0.1
700	1100	-0.1
800	1100	-0.1
900	1100	-0.1
1000	1100	-0.1
1100	1100	-0.1
1200	1100	-0.1
1300	1100	-0.1
1400	1100	-0.1
1500	1100	-0.1
1600	1100	-0.1
1700	1100	-0.1
1800	1100	-0.1
1900	1100	-0.1
2000	1100	-0.1
2100	1100	-0.1
2200	1100	-0.1
2300	1100	-0.1
2400	1100	-0.1
2500	1100	-0.1
2600	1100	-0.1
2700	1100	-0.1
2800	1100	-0.1
2900	1100	-0.1
3000	1100	-0.1
3100	1100	-0.1
3200	1100	-0.1
3300	1100	-0.1
3400	1100	-0.1
3500	1100	-0.1
3600	1100	-0.1
3700	1100	-0.1
3800	1100	-0.1
3900	1100	-0.1
4000	1100	-0.1
4100	1100	-0.1
4200	1100	-0.1
4300	1100	-0.1
4400	1100	-0.1
4500	1100	-0.1
4600	1100	-0.1
[...]
CELL_DATA	3721
SCALARS T_zz double 1
LOOKUP_TABLE table0
-0.444956
-0.47698
-0.494665
-0.495473
-0.510859
-0.548463
-0.554889
-0.5507
-0.585501
-0.563899
-0.591473
-0.633854
-0.647091
-0.651807
-0.65078
-0.694126
-0.719745
-0.696041
-0.708169
-0.70625
-0.744081
-0.725201
-0.753498
-0.74459
-0.726799
-0.758399
-0.761186
-0.759529
-0.770576
-0.780418
-0.768733
-0.762389
-0.776713
-0.756151
-0.744386
-0.751181
-0.764946
-0.756722
-0.722635
-0.729095
-0.724096
-0.737396
-0.711726
-0.698829
-0.693479
-0.67984
-0.676863
-0.66103
-0.652577
-0.616384
-0.62411
-0.598336
-0.565585
-0.582709
-0.546403
-0.528294
-0.523426
-0.50434
-0.493751
-0.482511
-0.461191
-0.479927
-0.481552
-0.515625
-0.523292
-0.551895
-0.552253
-0.592156
-0.588495
-0.603766
-0.635893
-0.656388
-0.661047
-0.661624
-0.667494
-0.696573
-0.699846
-0.715938
-0.719107
-0.749874
-0.755931
-0.758513
-0.78358
-0.765275
-0.797316
-0.806961
-0.757768
-0.795151
-0.793035
-0.769585
-0.789317
-0.792506
-0.816195
-0.795993
-0.77924
-0.762685
-0.775722
-0.775921
-0.762882
-0.772893
-0.789438
-0.751043
-0.726926
-0.745463
-0.720215
-0.726761
-0.706963
-0.672574
-0.683275
-0.6848
-0.649161
-0.641413
-0.626236
-0.597943
-0.599774
-0.570162
-0.557016
-0.529727
-0.515224
-0.485986
-0.474186
-0.470405
-0.480959
-0.524323
-0.53772
-0.535515
-0.558938
-0.577801
-0.614353
-0.604969
-0.638989
-0.648236
-0.68574
-0.681023
-0.713949
-0.741019
-0.718573
-0.764894
-0.719343
-0.775091
-0.769608
-0.765267
-0.785524
-0.796137
-0.773139
-0.825589
-0.840508
-0.781813
-0.80369
-0.818403
-0.788081
-0.779337
-0.811197
-0.841717
-0.79487
-0.80245
-0.821027
-0.782207
-0.799694
-0.788365
-0.791915
-0.797918
-0.747003
-0.781442
-0.740029
-0.758695
-0.752072
-0.763546
-0.734585
-0.71081
-0.706301
-0.68372
-0.667402
-0.666726
-0.625445
-0.601112
-0.578931
-0.585478
-0.571766
-0.523188
-0.518701
-0.498578
-0.475504
-0.5118
-0.525869
-0.52706
-0.575574
-0.563374
-0.587471
-0.620672
-0.631595
-0.679924
-0.66693
-0.711981
-0.722024
-0.741352
-0.743115
-0.73774
-0.783731
-0.795276
-0.786287
-0.799907
-0.77472
-0.813661
-0.803371
-0.826058
-0.814422
-0.815339
-0.819346
-0.812057
-0.830423
-0.814578
-0.804732
-0.794929
-0.792316
-0.798815
-0.779281
-0.819346
-0.812816
-0.819243
-0.849149
-0.803561
-0.809922
-0.802668
-0.812209
-0.813193
-0.803894
-0.78202
-0.780078
-0.73336
-0.737409
-0.721549
-0.723095
-0.679314
-0.674723
-0.676692
-0.641643
-0.611589
-0.591927
-0.587418
-0.562851
-0.548109
-0.524204
-0.511524
-0.543035
-0.523751
-0.554691
-0.577924
-0.596685
-0.619202
-0.658312
-0.633131
-0.659268
-0.723906
-0.714553
-0.739961
-0.745145
-0.765885
-0.782614
-0.776892
-0.797581
-0.793538
-0.833027
-0.825073
-0.82335
-0.828488
-0.83772
-0.79931
-0.803713
-0.787175
-0.800535
-0.817617
-0.804994
-0.831483
-0.816584
-0.810252
-0.819457
-0.840171
-0.833297
-0.818201
-0.820944
-0.855257
-0.839152
-0.805634
-0.837436
-0.817565
-0.802628
-0.787799
-0.800027
-0.780631
-0.783222
-0.756842
-0.756037
-0.715209
-0.68103
-0.713021
-0.676206
-0.656637
-0.64461
-0.637021
-0.611533
-0.569013
-0.571007
-0.535462
-0.522005
-0.554971
-0.556417
-0.569118
-0.617301
-0.626825
-0.640369
-0.667594
-0.716869
-0.695159
-0.697632
-0.74843
-0.77354
-0.796894
-0.78593
-0.790235
-0.825219
-0.792576
-0.805374
-0.809704
-0.830802
-0.818407
-0.82619
-0.856271
-0.824193
-0.810074
-0.817538
-0.842747
-0.798826
-0.813401
-0.813927
-0.813249
-0.805215
-0.801352
-0.800218
-0.837757
-0.817448
-0.828767
-0.869623
-0.810196
-0.836847
-0.808978
-0.828397
-0.819456
-0.846452
-0.857363
-0.820299
-0.81168
-0.788695
-0.793823
-0.776333
-0.737259
-0.73357
-0.697268
-0.673643
-0.670706
-0.626223
-0.62516
-0.602009
-0.603284
-0.580895
-0.53072
-0.584616
-0.581928
-0.605093
-0.604514
-0.664672
-0.640936
-0.692389
-0.717184
-0.724815
-0.76322
-0.739849
-0.794094
-0.801883
-0.824245
-0.804793
-0.814399
-0.803296
-0.840267
-0.856357
-0.850983
-0.824603
-0.815247
-0.827357
-0.824989
-0.845585
-0.784031
-0.777003
-0.779384
-0.798194
-0.797182
-0.759508
-0.779068
-0.797962
-0.794877
-0.796771
-0.799751
-0.814442
-0.825941
-0.807755
-0.827222
-0.808514
-0.854126
-0.855047
-0.841524
-0.826002
-0.848007
-0.835876
-0.823447
-0.796562
-0.777849
-0.78168
-0.766833
-0.752636
-0.698129
-0.716017
-0.669731
-0.642101
-0.621257
-0.600847
-0.584945
-0.559823
-0.586655
-0.606475
-0.617881
-0.642081
-0.663428
-0.691925
-0.728059
-0.747314
-0.753456
-0.77915
-0.81253
-0.787661
-0.844517
-0.844433
-0.849689
-0.855303
-0.842057
-0.864967
-0.88315
-0.836241
-0.830673
-0.812622
-0.799894
-0.766254
-0.764112
-0.765777
-0.720991
-0.735132
-0.75345
-0.752819
-0.751269
-0.738002
-0.74356
-0.754687
-0.78377
-0.764067
-0.771089
-0.797268
-0.830314
-0.779467
-0.833101
-0.825164
-0.87332
-0.862447
-0.856438
-0.838219
-0.845283
-0.855162
-0.80637
-0.803751
-0.793268
-0.794289
-0.756631
-0.730001
-0.707971
-0.70382
-0.661174
-0.611856
-0.625983
-0.614115
-0.577326
-0.61371
-0.607566
-0.647873
-0.669977
-0.661591
-0.75693
-0.736329
-0.76568
-0.804033
-0.797955
-0.851439
-0.817647
-0.838059
-0.888793
-0.86179
-0.87871
-0.853387
-0.825481
-0.854376
-0.845237
-0.842213
-0.815108
-0.745492
-0.762861
-0.753198
-0.729579
-0.676666
-0.643981
-0.662993
-0.695435
-0.655593
-0.654749
-0.681975
-0.691947
-0.701974
-0.715046
-0.721928
-0.760777
-0.776336
-0.771706
-0.816058
-0.846612
-0.825365
-0.850718
-0.861728
-0.8232
-0.843393
-0.871171
-0.869092
-0.83141
-0.801696
-0.794597
-0.782323
-0.769691
-0.724284
-0.732606
-0.700506
-0.667842
-0.637445
-0.63263
-0.590314
-0.645127
-0.647494
-0.666622
-0.699649
-0.733276
-0.719864
-0.768788
-0.785733
-0.809338
-0.800663
-0.817232
-0.862206
-0.833386
-0.861865
-0.890937
-0.879564
-0.854894
-0.831882
-0.834616
-0.809289
-0.760986
-0.744417
-0.715929
-0.68318
-0.655752
-0.638254
-0.606086
-0.569731
-0.575752
-0.561755
-0.564134
-0.545093
-0.560793
-0.589515
-0.622844
-0.621502
-0.675247
-0.700795
-0.722877
-0.756847
-0.766013
-0.789471
-0.829955
-0.876901
-0.854228
-0.858132
-0.89141
-0.884505
-0.865191
-0.879669
-0.818208
-0.81798
-0.794666
-0.77546
-0.7762
-0.736092
-0.729665
-0.687471
-0.68189
-0.665048
-0.617957
-0.644004
-0.679254
-0.670826
-0.730014
-0.711278
-0.75674
-0.780518
-0.81615
-0.820527
-0.863175
-0.829069
-0.888627
-0.897422
-0.864649
-0.863903
-0.8626
-0.866944
-0.800303
-0.796625
-0.762567
-0.729292
-0.686727
-0.644197
-0.586155
-0.556365
-0.524757
-0.488516
-0.452988
-0.443534
-0.427922
-0.418691
-0.425487
-0.448546
-0.471914
-0.487538
-0.504348
-0.555368
-0.590286
-0.656502
-0.676027
-0.72432
-0.767399
-0.799494
-0.798493
-0.837294
-0.87403
-0.868427
-0.844232
-0.848039
-0.8906
-0.886895
-0.855328
-0.819599
-0.80098
-0.801519
-0.784478
-0.740931
-0.718389
-0.704325
-0.662046
-0.650866
-0.666211
-0.681147
-0.717331
-0.767319
-0.792961
-0.787086
-0.82817
-0.865531
-0.850334
-0.877125
-0.863257
-0.881154
-0.86197
-0.895738
-0.883762
-0.81376
-0.819953
-0.779974
-0.758082
-0.688072
-0.6526
-0.588859
-0.523376
-0.458788
-0.42051
-0.366698
-0.309477
-0.273558
-0.247598
-0.227695
-0.224458
-0.231042
-0.245337
-0.277207
-0.315515
-0.354379
-0.413401
-0.496868
-0.525348
-0.605005
-0.653085
-0.710543
-0.738308
-0.770426
-0.809887
-0.876187
-0.873875
-0.877678
-0.922799
-0.86279
-0.832072
-0.844905
-0.853609
-0.851664
-0.810889
-0.791003
-0.741787
-0.747372
-0.730343
-0.679679
-0.65441
-0.667994
-0.690419
-0.731327
-0.743132
-0.767257
-0.798751
-0.833677
-0.846282
-0.850737
-0.892878
-0.876308
-0.897995
-0.903685
-0.869978
-0.845753
-0.850582
-0.812106
-0.755473
-0.661141
-0.617156
-0.547107
-0.467468
-0.377457
-0.308535
-0.223069
-0.152626
-0.0864986
-0.0350757
0.00482218
0.0296226
0.0388553
0.0297327
0.0049935
-0.0333949
-0.0906893
-0.152512
-0.221757
-0.306794
-0.383641
-0.469491
-0.548293
-0.617597
-0.694704
-0.728406
-0.791597
-0.825592
-0.849668
-0.841897
-0.905192
-0.903228
-0.886592
-0.907602
-0.87743
-0.849863
-0.835392
-0.828841
-0.82662
-0.769577
-0.70626
-0.693727
-0.659659
-0.692047
-0.720913
-0.760512
-0.782753
-0.794104
-0.828157
-0.849532
-0.874523
-0.913007
-0.927696
-0.919538
-0.884398
-0.896959
-0.850141
-0.817698
-0.781343
-0.72723
-0.678325
-0.601842
-0.501932
-0.407934
-0.308202
-0.186979
-0.0813093
0.0224992
0.121908
0.208016
0.282771
0.324097
0.364676
0.370039
0.368069
0.333972
0.280487
0.209146
0.123329
0.0236436
-0.0831825
-0.189686
-0.300814
-0.399905
-0.505795
-0.579484
-0.679684
-0.735671
-0.772605
-0.832211
-0.86782
-0.913512
-0.900757
-0.91139
-0.897593
-0.888793
-0.87157
-0.868289
-0.844585
-0.807327
-0.768901
-0.766238
-0.72964
-0.684622
-0.728264
-0.75505
-0.794265
-0.805831
-0.843088
-0.836089
-0.868271
-0.897083
-0.910959
-0.94088
-0.880896
-0.92599
-0.883128
-0.836593
-0.810523
-0.777004
-0.661243
-0.567168
-0.483439
-0.359381
-0.218699
-0.0821015
0.0595694
0.197189
0.335765
0.471273
0.584892
0.6779
0.743789
0.794924
0.813263
0.804571
0.756285
0.681019
0.591707
0.461981
0.337632
0.211947
0.059125
-0.0840148
-0.217682
-0.351198
-0.468565
-0.592375
-0.673527
-0.720926
-0.778575
-0.836688
-0.877958
-0.886017
-0.910279
-0.933678
-0.923791
-0.868496
-0.886716
-0.802449
-0.828092
-0.841295
-0.740225
-0.742329
-0.709555
-0.745224
-0.750466
-0.809761
-0.822618
-0.835106
-0.908271
-0.879044
-0.936043
-0.924389
-0.921718
-0.932101
-0.900111
-0.841169
-0.831563
-0.769739
-0.693729
-0.573973
-0.465674
-0.315188
-0.164414
0.00794902
0.189525
0.391565
0.558684
0.742876
0.908092
1.08083
1.22542
1.27369
1.34039
1.35962
1.31376
1.29037
1.15033
1.04192
0.908867
0.756309
0.564926
0.383935
0.18822
0.00778801
-0.161244
-0.310175
-0.46843
-0.575991
-0.663341
-0.777505
-0.812405
-0.881854
-0.885703
-0.915656
-0.928429
-0.926265
-0.907715
-0.902569
-0.899013
-0.862701
-0.851434
-0.805163
-0.775333
-0.736272
-0.760531
-0.77214
-0.809939
-0.846742
-0.882619
-0.907675
-0.92831
-0.945474
-0.955256
-0.934295
-0.938815
-0.914758
-0.845926
-0.793149
-0.679193
-0.593695
-0.462868
-0.312768
-0.127205
0.0736442
0.294397
0.542295
0.765865
1.02813
1.26972
1.45033
1.73526
1.87076
1.94537
2.08069
2.09083
1.9497
1.92707
1.79734
1.64485
1.4703
1.29029
1.02834
0.77494
0.534032
0.304552
0.0707532
-0.128861
-0.319771
-0.468177
-0.590876
-0.696692
-0.771501
-0.847243
-0.874022
-0.910002
-0.922817
-0.954702
-0.957705
-0.942527
-0.904381
-0.831433
-0.82728
-0.83465
-0.786678
-0.748668
-0.778672
-0.825028
-0.849101
-0.899322
-0.889161
-0.920013
-0.964501
-0.930801
-0.943281
-0.936877
-0.915284
-0.907943
-0.826808
-0.719713
-0.615151
-0.484333
-0.326273
-0.126972
0.10401
0.364409
0.649759
0.944396
1.23692
1.57035
1.79636
2.17512
2.39049
2.55752
2.71633
2.90234
2.853
2.85
2.68326
2.55417
2.32773
2.10739
1.85845
1.59657
1.25852
0.969942
0.63362
0.357011
0.104542
-0.126018
-0.316163
-0.486464
-0.618921
-0.729685
-0.836187
-0.887726
-0.924518
-0.969344
-0.96241
-0.918924
-0.935958
-0.938488
-0.884054
-0.844261
-0.855917
-0.811118
-0.780573
-0.759222
-0.818086
-0.848403
-0.865151
-0.92794
-0.960902
-0.97154
-0.958538
-0.943137
-0.954665
-0.902522
-0.840778
-0.799788
-0.681396
-0.535442
-0.371986
-0.151916
0.0991508
0.376174
0.716829
1.0634
1.48024
1.74663
2.24915
2.63595
3.00454
3.1664
3.57929
3.68903
3.89634
3.82311
3.70742
3.72546
3.52797
3.24904
2.90644
2.55832
2.26378
1.82613
1.47245
1.09026
0.732023
0.387884
0.0963771
-0.154682
-0.368671
-0.552959
-0.668375
-0.806394
-0.839535
-0.931364
-0.941195
-1.00175
-0.939995
-0.966706
-0.954815
-0.91548
-0.89237
-0.836877
-0.852723
-0.785914
-0.815564
-0.828718
-0.845065
-0.905295
-0.954541
-0.9768
-0.948263
-0.964276
-0.981097
-0.931595
-0.934417
-0.824266
-0.738747
-0.624704
-0.441771
-0.216739
0.0428862
0.35871
0.717615
1.11497
1.53261
2.10057
2.54567
3.12509
3.49979
4.04008
4.31995
4.6015
5.06805
4.88793
5.3043
5.0726
4.80301
4.75756
4.28378
3.97726
3.52318
2.98776
2.42524
2.00728
1.57327
1.11291
0.711257
0.35988
0.0441762
-0.21683
-0.431372
-0.62117
-0.74585
-0.831095
-0.906078
-0.931123
-1.01011
-0.997956
-0.997248
-0.961566
-0.955805
-0.889876
-0.889498
-0.82575
-0.800459
-0.833008
-0.854309
-0.863265
-0.920136
-0.967207
-0.982787
-1.00688
-0.99977
-0.977062
-0.994392
-0.866212
-0.780967
-0.677034
-0.5393
-0.312213
-0.0481355
0.2725
0.641396
1.15977
1.61328
2.04703
2.66673
3.33163
3.95573
4.71454
5.21277
5.47278
6.0969
6.44352
6.36363
6.76226
6.58748
6.34257
5.99991
5.55105
5.19458
4.73024
4.18315
3.31181
2.80471
2.18424
1.62358
1.11597
0.655926
0.27617
-0.0482332
-0.314058
-0.536932
-0.67247
-0.82336
-0.868347
-0.987873
-0.974179
-1.00058
-0.984902
-0.999649
-0.963298
-0.944399
-0.898972
-0.856905
-0.825889
-0.836798
-0.880493
-0.905335
-0.932397
-0.980524
-1.00017
-0.969237
-1.01141
-0.961802
-0.980154
-0.889992
-0.784628
-0.619435
-0.430426
-0.182268
0.141285
0.544605
0.980457
1.55017
2.15069
2.87229
3.61972
4.31417
5.18098
5.97862
6.60969
7.42687
7.8113
8.014
8.38983
8.21298
8.15017
7.83282
7.3502
7.25156
6.48925
5.98288
5.08598
4.41645
3.4404
2.9002
2.19646
1.57466
1.04205
0.559469
0.146148
-0.180575
-0.439847
-0.599911
-0.774762
-0.902146
-0.953542
-0.99694
-0.972345
-1.02648
-0.997411
-0.986086
-0.938586
-0.92364
-0.87944
-0.855556
-0.843264
-0.90195
-0.899519
-0.956177
-0.992951
-1.01123
-1.02324
-1.04384
-0.978071
-0.9551
-0.876291
-0.744328
-0.560196
-0.331905
-0.0288719
0.358446
0.816086
1.36322
2.03473
2.79903
3.58062
4.55987
5.4731
6.28029
7.19574
8.08609
9.08866
9.3844
9.95078
10.1539
10.0765
10.0401
9.85415
9.7139
8.98358
8.21068
7.3669
6.6081
5.51635
4.52822
3.60655
2.81461
2.08014
1.36397
0.837023
0.356054
-0.0309358
-0.330499
-0.566405
-0.746381
-0.867518
-0.949299
-0.993929
-0.989977
-1.00586
-1.02545
-0.97798
-0.939803
-0.920494
-0.898041
-0.846691
-0.862098
-0.928932
-0.934198
-0.993311
-0.99867
-1.03491
-1.06252
-1.05064
-0.974771
-0.950301
-0.841657
-0.693356
-0.503769
-0.226063
0.126399
0.572019
1.15609
1.87649
2.58221
3.37793
4.61309
5.7549
6.76882
7.82554
9.099
10.0969
10.7207
11.3614
12.7958
12.5227
12.9568
12.8838
12.0318
11.3993
10.989
10.3071
9.21917
7.86724
6.69397
5.47343
4.48055
3.45699
2.58113
1.80672
1.21939
0.57345
0.1206
-0.237482
-0.483366
-0.694545
-0.830462
-0.972215
-0.974032
-1.02387
-1.03103
-1.0354
-1.01095
-0.967737
-0.945365
-0.896482
-0.874936
-0.884492
-0.925149
-0.971217
-0.97623
-1.00539
-1.05314
-1.0521
-1.0844
-1.00134
-0.94137
-0.836483
-0.650686
-0.43505
-0.122821
0.28254
0.819989
1.51539
2.29217
3.19603
4.24327
5.56324
6.82924
8.25725
9.43124
11.1131
11.7274
13.1488
14.1676
15.0134
15.2035
15.4365
15.0058
15.0477
13.939
13.0166
12.0291
11.0103
9.66212
8.33935
6.92627
5.35094
4.20184
3.08947
2.24177
1.42182
0.803557
0.285944
-0.122691
-0.427557
-0.684079
-0.808122
-0.906683
-0.992688
-1.01729
-1.05326
-1.04066
-1.01093
-1.00205
-0.975501
-0.940468
-0.892444
-0.914989
-0.95915
-0.986327
-1.01418
-1.05531
-1.04259
-1.05543
-1.02856
-0.988542
-0.918273
-0.802955
-0.625293
-0.363582
-0.0267802
0.406281
1.02819
1.82917
2.65658
3.76477
5.19612
6.36376
8.0147
10.0921
11.239
13.1751
15.2372
15.7825
16.9878
17.967
18.0162
18.5843
17.6968
17.4279
17.1416
15.8633
14.6999
12.868
11.9087
9.49325
8.1004
6.61533
5.10888
3.79432
2.65231
1.81031
1.01291
0.431077
-0.0281797
-0.387178
-0.620945
-0.801687
-0.934015
-1.03007
-1.01687
-1.02023
-1.0851
-1.06567
-1.03416
-0.994041
-0.916346
-0.870506
-0.941358
-0.960786
-0.978059
-1.04295
-1.07445
-1.03597
-1.14753
-1.0771
-1.01744
-0.943426
-0.80554
-0.632082
-0.327603
0.0581416
0.568326
1.25276
2.10904
3.18792
4.53458
5.90034
7.586
10.0695
11.5864
12.7655
14.9645
17.1469
18.9776
20.1544
20.7681
20.946
21.0564
20.9691
20.641
19.7446
18.5283
17.3137
14.8478
13.2786
11.5173
9.47834
7.65789
6.22663
4.40527
3.0387
2.09681
1.24906
0.562499
0.0583572
-0.321716
-0.624751
-0.804118
-0.981103
-1.03133
-1.05546
-1.04525
-1.05571
-1.06586
-1.03044
-0.968108
-0.949813
-0.887706
-0.923211
-0.92556
-0.990289
-1.04617
-1.07438
-1.12571
-1.09681
-1.0644
-1.03278
-0.96743
-0.828864
-0.589915
-0.285575
0.124065
0.686411
1.46752
2.43129
3.54759
5.07837
6.74422
8.72144
11.0792
13.3712
15.4161
17.9054
19.3963
21.7678
23.3422
24.0932
24.5927
25.0007
25.8345
23.7401
23.4905
22.0751
19.9502
17.8844
15.5239
13.3073
10.5784
8.80348
6.90149
5.06654
3.62235
2.39069
1.48301
0.703177
0.12652
-0.293337
-0.592673
-0.795709
-0.945753
-1.00757
-1.08005
-1.07653
-1.08479
-1.10438
-1.03586
-1.02153
-0.942523
-0.95325
-0.946444
-0.963211
-1.0431
-1.07112
-1.11652
-1.13356
-1.06936
-1.10136
-1.08002
-0.961464
-0.834611
-0.61155
-0.278938
0.162281
0.790204
1.59222
2.72372
3.97721
5.63262
7.69897
9.76079
11.9643
15.0108
18.155
20.1774
23.7769
24.6741
27.4687
28.3435
28.5794
28.256
28.4294
27.691
27.2679
24.6186
24.002
20.7143
17.7635
14.6138
12.6057
9.74882
7.43651
5.59615
3.93299
2.68669
1.56795
0.760552
0.170697
-0.282165
-0.587509
-0.828232
-0.951688
-1.05433
-1.10647
-1.10754
-1.13345
-1.08521
-1.02663
-1.03316
-0.992552
-0.930301
-0.951735
-0.962536
-1.04887
-1.07699
-1.09772
-1.14674
-1.12748
-1.16191
-1.08972
-0.992322
-0.854048
-0.623095
-0.290857
0.17417
0.850507
1.67416
2.82264
4.27023
6.06151
8.34813
10.847
13.7546
16.2155
19.5382
23.1173
25.8067
28.4064
30.5422
33.3098
32.5932
32.9067
33.1324
31.7398
30.8717
28.6905
25.1046
23.7742
20.3806
17.0137
13.6973
10.9764
8.33702
6.19968
4.28107
2.86239
1.65018
0.817471
0.168135
-0.28121
-0.631003
-0.835429
-0.970068
-1.08344
-1.11502
-1.15954
-1.12633
-1.13483
-1.06655
-1.01013
-1.01476
-0.952801
-0.925275
-1.00418
-1.01403
-1.0587
-1.09679
-1.1306
-1.1452
-1.14758
-1.09616
-1.02493
-0.890996
-0.64595
-0.326892
0.147037
0.809084
1.62224
2.8744
4.37876
6.45262
8.76615
11.4725
15.1667
18.9056
22.4424
25.5517
30.006
31.3293
35.3243
35.2668
38.5709
37.3273
39.3413
35.5314
33.3651
32.097
29.3284
25.8341
22.3626
18.9378
15.4458
11.5213
9.07308
6.25354
4.55164
2.90322
1.748
0.788689
0.150344
-0.324012
-0.64383
-0.847306
-0.971689
-1.08346
-1.16627
-1.13611
-1.14498
-1.11421
-1.07188
-1.05028
-1.02688
-0.911654
-0.961767
-1.00668
-1.05964
-1.08843
-1.08414
-1.18008
-1.18573
-1.13943
-1.18885
-1.05353
-0.936741
-0.716849
-0.382206
0.0804883
0.745343
1.56279
2.88092
4.56582
6.529
9.22628
11.6893
16.7184
19.848
24.1033
29.0067
33.2711
36.7917
38.5475
41.7897
42.9913
42.6919
41.5689
42.1879
38.6567
36.2108
32.2074
28.3327
24.6233
20.498
15.9079
12.5612
9.26008
6.61935
4.49802
2.94262
1.65082
0.777587
0.0814976
-0.395069
-0.715529
-0.923578
-1.05104
-1.12403
-1.12953
-1.16795
-1.15621
-1.12299
-1.09054
-1.03818
-0.983943
-0.947961
-0.972688
-1.01212
-1.07933
-1.10111
-1.13454
-1.24863
-1.22389
-1.2377
-1.15177
-1.08147
-0.959317
-0.814967
-0.490722
-0.0267871
0.612796
1.49825
2.67624
4.2292
6.65307
9.3347
12.65
16.6499
21.6614
27.1038
31.0827
35.1172
38.9344
43.3216
44.5059
46.7647
46.8415
46.3004
46.1497
44.3479
40.581
36.6472
30.808
24.9969
21.5235
17.1842
12.3258
9.14344
6.82265
4.44483
2.75577
1.50324
0.620652
-0.0257437
-0.483722
-0.790372
-0.971535
-1.10288
-1.19368
-1.15051
-1.20621
-1.19215
-1.14956
-1.10386
-1.06198
-1.01931
-0.973702
-0.970114
-1.05196
-1.07747
-1.07964
-1.18694
-1.23982
-1.20584
-1.20525
-1.21902
-1.16366
-1.05098
-0.847885
-0.580313
-0.166243
0.437124
1.3338
2.47644
4.05814
6.12721
9.03965
12.4391
16.5185
22.3611
26.7927
33.035
39.0326
43.0434
47.1027
48.9566
51.5087
52.6047
52.6443
51.1756
48.1288
43.0911
38.8161
32.3943
27.1507
22.0861
16.9008
12.5329
8.88828
6.36898
3.97487
2.48836
1.29738
0.450407
-0.168604
-0.614886
-0.836668
-1.03791
-1.1854
-1.19802
-1.23912
-1.23083
-1.21875
-1.16249
-1.1295
-1.07868
-1.02785
-1.00516
-0.972037
-1.05312
-1.07583
-1.11418
-1.14068
-1.20245
-1.22714
-1.25079
-1.25878
-1.20381
-1.14109
-0.945958
-0.697995
-0.342933
0.213888
1.02069
2.13795
3.56436
5.56103
8.49665
12.327
16.3142
21.8773
27.1949
32.9883
40.386
44.8099
52.0957
51.3215
56.9171
57.0504
57.3217
55.5449
50.5842
45.7144
39.9763
34.1534
27.9096
21.543
16.6865
11.9617
8.75855
5.56652
3.63741
2.11127
1.01548
0.214211
-0.327725
-0.731988
-0.95971
-1.13202
-1.21907
-1.24706
-1.27404
-1.20096
-1.2218
-1.19804
-1.12076
-1.07514
-1.02899
-0.962348
-0.978085
-1.03447
-1.05719
-1.13797
-1.15263
-1.23196
-1.21534
-1.31067
-1.26628
-1.26429
-1.16882
-1.0862
-0.850409
-0.521844
-0.0419531
0.646997
1.6833
3.21506