# vtk DataFile Version 3.0
Gravity effects
ASCII
DATASET UNSTRUCTURED_GRID

POINTS	3721	double
0	0	-0.1
100	0	-0.1
200	0	-0.1
300	0	-0.1
400	0	-0.1
500	0	-0.1
600	0	-0.1
700	0	-0.1
800	0	-0.1
900	0	-0.1
1000	0	-0.1
1100	0	-0.1
1200	0	-0.1
1300	0	-0.1
1400	0	-0.1
1500	0	-0.1
1600	0	-0.1
1700	0	-0.1
1800	0	-0.1
1900	0	-0.1
2000	0	-0.1
2100	0	-0.1
2200	0	-0.1
2300	0	-0.1
2400	0	-0.1
2500	0	-0.1
2600	0	-0.1
2700	0	-0.1
2800	0	-0.1
2900	0	-0.1
3000	0	-0.1
3100	0	-0.1
3200	0	-0.1
3300	0	-0.1
3400	0	-0.1
3500	0	-0.1
3600	0	-0.1
3700	0	-0.1
3800	0	-0.1
3900	0	-0.1
4000	0	-0.1
4100	0	-0.1
4200	0	-0.1
4300	0	-0.1
4400	0	-0.1
4500	0	-0.1
4600	0	-0.1
4700	0	-0.1
4800	0	-0.1
4900	0	-0.1
5000	0	-0.1
5100	0	-0.1
5200	0	-0.1
5300	0	-0.1
5400	0	-0.1
5500	0	-0.1
5600	0	-0.1
5700	0	-0.1
5800	0	-0.1
5900	0	-0.1
6000	0	-0.1
0	100	-0.1
100	100	-0.1
200	100	-0.1
300	100	-0.1
400	100	-0.1
500	100	-0.1
600	100	-0.1
700	100	-0.1
800	100	-0.1
900	100	-0.1
1000	100	-0.1
1100	100	-0.1
1200	100	-0.1
1300	100	-0.1
1400	100	-0.1
1500	100	-0.1
1600	100	-0.1
1700	100	-0.1
1800	100	-0.1
1900	100	-0.1
2000	100	-0.1
2100	100	-0.1
2200	100	-0.1
2300	100	-0.1
2400	100	-0.1
2500	100	-0.1
2600	100	-0.1
2700	100	-0.1
2800	100	-0.1
2900	100	-0.1
3000	100	-0.1
3100	100	-0.1
3200	100	-0.1
3300	100	-0.1
3400	100	-0.1
3500	100	-0.1
3600	100	-0.1
3700	100	-0.1
3800	100	-0.1
3900	100	-0.1
4000	100	-0.1
4100	100	-0.1
4200	100	-0.1
4300	100	-0.1
4400	100	-0.1
4500	100	-0.1
4600	100	-0.1
4700	100	-0.1
4800	100	-0.1
4900	100	-0.1
5000	100	-0.1
5100	100	-0.1
5200	100	-0.1
5300	100	-0.1
5400	100	-0.1
5500	100	-0.1
5600	100	-0.1
5700	100	-0.1
5800	100	-0.1
5900	100	-0.1
6000	100	-0.1
0	200	-0.1
100	200	-0.1
200	200	-0.1
300	200	-0.1
400	200	-0.1
500	200	-0.1
600	200	-0.1
700	200	-0.1
800	200	-0.1
900	200	-0.1
1000	200	-0.1
1100	200	-0.1
1200	200	-0.1
1300	200	-0.1
1400	200	-0.1
1500	200	-0.1
1600	200	-0.1
1700	200	-0.1
1800	200	-0.1
1900	200	-0.1
2000	200	-0.1
2100	200	-0.1
2200	200	-0.1
2300	200	-0.1
2400	200	-0.1
2500	200	-0.1
2600	200	-0.1
2700	200	-0.1
2800	200	-0.1
2900	200	-0.1
3000	200	-0.1
3100	200	-0.1
3200	200	-0.1
3300	200	-0.1
3400	200	-0.1
3500	200	-0.1
3600	200	-0.1
3700	200	-0.1
3800	200	-0.1
3900	200	-0.1
4000	200	-0.1
4100	200	-0.1
4200	200	-0.1
4300	200	-0.1
4400	200	-0.1
4500	200	-0.1
4600	200	-0.1
4700	200	-0.1
4800	200	-0.1
4900	200	-0.1
5000	200	-0.1
5100	200	-0.1
5200	200	-0.1
5300	200	-0.1
5400	200	-0.1
5500	200	-0.1
5600	200	-0.1
5700	200	-0.1
5800	200	-0.1
5900	200	-0.1
6000	200	-0.1
0	300	-0.1
100	300	-0.1
200	300	-0.1
300	300	-0.1
400	300	-0.1
500	300	-0.1
600	300	-0.1
700	300	-0.1
800	300	-0.1
900	300	-0.1
1000	300	-0.1
1100	300	-0.1
1200	300	-0.1
1300	300	-0.1
1400	300	-0.1
1500	300	-0.1
1600	300	-0.1
1700	300	-0.1
1800	300	-0.1
1900	300	-0.1
2000	300	-0.1
2100	300	-0.1
2200	300	-0.1
2300	300	-0.1
2400	300	-0.1
2500	300	-0.1
2600	300	-0.1
2700	300	-0.1
2800	300	-0.1
2900	300	-0.1
3000	300	-0.1
3100	300	-0.1
3200	300	-0.1
3300	300	-0.1
3400	300	-0.1
3500	300	-0.1
3600	300	-0.1
3700	300	-0.1
3800	300	-0.1
3900	300	-0.1
4000	300	-0.1
4100	300	-0.1
4200	300	-0.1
4300	300	-0.1
4400	300	-0.1
4500	300	-0.1
4600	300	-0.1
4700	300	-0.1
4800	300	-0.1
4900	300	-0.1
5000	300	-0.1
5100	300	-0.1
5200	300	-0.1
5300	300	-0.1
5400	300	-0.1
5500	300	-0.1
5600	300	-0.1
5700	300	-0.1
5800	300	-0.1
5900	300	-0.1
6000	300	-0.1
0	400	-0.1
100	400	-0.1
200	400	-0.1
300	400	-0.1
400	400	-0.1
500	400	-0.1
600	400	-0.1
700	400	-0.1
800	400	-0.1
900	400	-0.1
1000	400	-0.1
1100	400	-0.1
1200	400	-0.1
1300	400	-0.1
1400	400	-0.1
1500	400	-0.1
1600	400	-0.1
1700	400	-0.1
1800	400	-0.1
1900	400	-0.1
2000	400	-0.1
2100	400	-0.1
2200	400	-0.1
2300	400	-0.1
2400	400	-0.1
2500	400	-0.1
2600	400	-0.1
2700	400	-0.1
2800	400	-0.1
2900	400	-0.1
3000	400	-0.1
3100	400	-0.1
3200	400	-0.1
3300	400	-0.1
3400	400	-0.1
3500	400	-0.1
3600	400	-0.1
3700	400	-0.1
3800	400	-0.1
3900	400	-0.1
4000	400	-0.1
4100	400	-0.1
4200	400	-0.1
4300	400	-0.1
4400	400	-0.1
4500	400	-0.1
4600	400	-0.1
4700	400	-0.1
4800	400	-0.1
4900	400	-0.1
5000	400	-0.1
5100	400	-0.1
5200	400	-0.1
5300	400	-0.1
5400	400	-0.1
5500	400	-0.1
5600	400	-0.1
5700	400	-0.1
5800	400	-0.1
5900	400	-0.1
6000	400	-0.1
0	500	-0.1
100	500	-0.1
200	500	-0.1
300	500	-0.1
400	500	-0.1
500	500	-0.1
600	500	-0.1
700	500	-0.1
800	500	-0.1
900	500	-0.1
1000	500	-0.1
1100	500	-0.1
1200	500	-0.1
1300	500	-0.1
1400	500	-0.1
1500	500	-0.1
1600	500	-0.1
1700	500	-0.1
1800	500	-0.1
1900	500	-0.1
2000	500	-0.1
2100	500	-0.1
2200	500	-0.1
2300	500	-0.1
2400	500	-0.1
2500	500	-0.1
2600	500	-0.1
2700	500	-0.1
2800	500	-0.1
2900	500	-0.1
3000	500	-0.1
3100	500	-0.1
3200	500	-0.1
3300	500	-0.1
3400	500	-0.1
3500	500	-0.1
3600	500	-0.1
3700	500	-0.1
3800	500	-0.1
3900	500	-0.1
4000	500	-0.1
4100	500	-0.1
4200	500	-0.1
4300	500	-0.1
4400	500	-0.1
4500	500	-0.1
4600	500	-0.1
4700	500	-0.1
4800	500	-0.1
4900	500	-0.1
5000	500	-0.1
5100	500	-0.1
5200	500	-0.1
5300	500	-0.1
5400	500	-0.1
5500	500	-0.1
5600	500	-0.1
5700	500	-0.1
5800	500	-0.1
5900	500	-0.1
6000	500	-0.1
0	600	-0.1
100	600	-0.1
200	600	-0.1
300	600	-0.1
400	600	-0.1
500	600	-0.1
600	600	-0.1
700	600	-0.1
800	600	-0.1
900	600	-0.1
1000	600	-0.1
1100	600	-0.1
1200	600	-0.1
1300	600	-0.1
1400	600	-0.1
1500	600	-0.1
1600	600	-0.1
1700	600	-0.1
1800	600	-0.1
1900	600	-0.1
2000	600	-0.1
2100	600	-0.1
2200	600	-0.1
2300	600	-0.1
2400	600	-0.1
2500	600	-0.1
2600	600	-0.1
2700	600	-0.1
2800	600	-0.1
2900	600	-0.1
3000	600	-0.1
3100	600	-0.1
3200	600	-0.1
3300	600	-0.1
3400	600	-0.1
3500	600	-0.1
3600	600	-0.1
3700	600	-0.1
3800	600	-0.1
3900	600	-0.1
4000	600	-0.1
4100	600	-0.1
4200	600	-0.1
4300	600	-0.1
4400	600	-0.1
4500	600	-0.1
4600	600	-0.1
4700	600	-0.1
4800	600	-0.1
4900	600	-0.1
5000	600	-0.1
5100	600	-0.1
5200	600	-0.1
5300	600	-0.1
5400	600	-0.1
5500	600	-0.1
5600	600	-0.1
5700	600	-0.1
5800	600	-0.1
5900	600	-0.1
6000	600	-0.1
0	700	-0.1
100	700	-0.1
200	700	-0.1
300	700	-0.1
400	700	-0.1
500	700	-0.1
600	700	-0.1
700	700	-0.1
800	700	-0.1
900	700	-0.1
1000	700	-0.1
1100	700	-0.1
1200	700	-0.1
1300	700	-0.1
1400	700	-0.1
1500	700	-0.1
1600	700	-0.1
1700	700	-0.1
1800	700	-0.1
1900	700	-0.1
2000	700	-0.1
2100	700	-0.1
2200	700	-0.1
2300	700	-0.1
2400	700	-0.1
2500	700	-0.1
2600	700	-0.1
2700	700	-0.1
2800	700	-0.1
2900	700	-0.1
3000	700	-0.1
3100	700	-0.1
3200	700	-0.1
3300	700	-0.1
3400	700	-0.1
3500	700	-0.1
3600	700	-0.1
3700	700	-0.1
3800	700	-0.1
3900	700	-0.1
4000	700	-0.1
4100	700	-0.1
4200	700	-0.1
4300	700	-0.1
4400	700	-0.1
4500	700	-0.1
4600	700	-0.1
4700	700	-0.1
4800	700	-0.1
4900	700	-0.1
5000	700	-0.1
5100	700	-0.1
5200	700	-0.1
5300	700	-0.1
5400	700	-0.1
5500	700	-0.1
5600	700	-0.1
5700	700	-0.1
5800	700	-0.1
5900	700	-0.1
6000	700	-0.1
0	800	-0.1
100	800	-0.1
200	800	-0.1
300	800	-0.1
400	800	-0.1
500	800	-0.1
600	800	-0.1
700	800	-0.1
800	800	-0.1
900	800	-0.1
1000	800	-0.1
1100	800	-0.1
1200	800	-0.1
1300	800	-0.1
1400	800	-0.1
1500	800	-0.1
1600	800	-0.1
1700	800	-0.1
1800	800	-0.1
1900	800	-0.1
2000	800	-0.1
2100	800	-0.1
2200	800	-0.1
2300	800	-0.1
2400	800	-0.1
2500	800	-0.1
2600	800	-0.1
2700	800	-0.1
2800	800	-0.1
2900	800	-0.1
3000	800	-0.1
3100	800	-0.1
3200	800	-0.1
3300	800	-0.1
3400	800	-0.1
3500	800	-0.1
3600	800	-0.1
3700	800	-0.1
3800	800	-0.1
3900	800	-0.1
4000	800	-0.1
4100	800	-0.1
4200	800	-0.1
4300	800	-0.1
4400	800	-0.1
4500	800	-0.1
4600	800	-0.1
4700	800	-0.1
4800	800	-0.1
4900	800	-0.1
5000	800	-0.1
5100	800	-0.1
5200	800	-0.1
5300	800	-0.1
5400	800	-0.1
5500	800	-0.1
5600	800	-0.1
5700	800	-0.1
5800	800	-0.1
5900	800	-0.1
6000	800	-0.1
0	900	-0.1
100	900	-0.1
200	900	-0.1
300	900	-0.1
400	900	-0.1
500	900	-0.1
600	900	-0.1
700	900	-0.1
800	900	-0.1
900	900	-0.1
1000	900	-0.1
1100	900	-0.1
1200	900	-0.1
1300	900	-0.1
1400	900	-0.1
1500	900	-0.1
1600	900	-0.1
1700	900	-0.1
1800	900	-0.1
1900	900	-0.1
2000	900	-0.1
2100	900	-0.1
2200	900	-0.1
2300	900	-0.1
2400	900	-0.1
2500	900	-0.1
2600	900	-0.1
2700	900	-0.1
2800	900	-0.1
2900	900	-0.1
3000	900	-0.1
3100	900	-0.1
3200	900	-0.1
3300	900	-0.1
3400	900	-0.1
3500	900	-0.1
3600	900	-0.1
3700	900	-0.1
3800	900	-0.1
3900	900	-0.1
4000	900	-0.1
4100	900	-0.1
4200	900	-0.1
4300	900	-0.1
4400	900	-0.1
4500	900	-0.1
4600	900	-0.1
4700	900	-0.1
4800	900	-0.1
4900	900	-0.1
5000	900	-0.1
5100	900	-0.1
5200	900	-0.1
5300	900	-0.1
5400	900	-0.1
5500	900	-0.1
5600	900	-0.1
5700	900	-0.1
5800	900	-0.1
5900	900	-0.1
6000	900	-0.1
0	1000	-0.1
100	1000	-0.1
200	1000	-0.1
300	1000	-0.1
400	1000	-0.1
500	1000	-0.1
600	1000	-0.1
700	1000	-0.1
800	1000	-0.1
900	1000	-0.1
1000	1000	-0.1
1100	1000	-0.1
1200	1000	-0.1
1300	1000	-0.1
1400	1000	-0.1
1500	1000	-0.1
1600	1000	-0.1
1700	1000	-0.1
1800	1000	-0.1
1900	1000	-0.1
2000	1000	-0.1
2100	1000	-0.1
2200	1000	-0.1
2300	1000	-0.1
2400	1000	-0.1
2500	1000	-0.1
2600	1000	-0.1
2700	1000	-0.1
2800	1000	-0.1
2900	1000	-0.1
3000	1000	-0.1
3100	1000	-0.1
3200	1000	-0.1
3300	1000	-0.1
3400	1000	-0.1
3500	1000	-0.1
3600	1000	-0.1
3700	1000	-0.1
3800	1000	-0.1
3900	1000	-0.1
4000	1000	-0.1
4100	1000	-0.1
4200	1000	-0.1
4300	1000	-0.1
4400	1000	-0.1
4500	1000	-0.1
4600	1000	-0.1
4700	1000	-0.1
4800	1000	-0.1
4900	1000	-0.1
5000	1000	-0.1
5100	1000	-0.1
5200	1000	-0.1
5300	1000	-0.1
5400	1000	-0.1
5500	1000	-0.1
5600	1000	-0.1
5700	1000	-0.1
5800	1000	-0.1
5900	1000	-0.1
6000	1000	-0.1
0	1100	-0.1
100	1100	-0.1
200	1100	-0.1
300	1100	-0.1
400	1100	-0.1
500	1100	-0.1
600	1100	-0.1
700	1100	-0.1
800	1100	-0.1
900	1100	-0.1
1000	1100	-0.1
1100	1100	-0.1
1200	1100	-0.1
1300	1100	-0.1
1400	1100	-0.1
1500	1100	-0.1
1600	1100	-0.1
1700	1100	-0.1
1800	1100	-0.1
1900	1100	-0.1
2000	1100	-0.1
2100	1100	-0.1
2200	1100	-0.1
2300	1100	-0.1
2400	1100	-0.1
2500	1100	-0.1
2600	1100	-0.1
2700	1100	-0.1
2800	1100	-0.1
2900	1100	-0.1
3000	1100	-0.1
3100	1100	-0.1
3200	1100	-0.1
3300	1100	-0.1
3400	1100	-0.1
3500	1100	-0.1
3600	1100	-0.1
3700	1100	-0.1
3800	1100	-0.1
3900	1100	-0.1
4000	1100	-0.1
4100	1100	-0.1
4200	1100	-0.1
4300	1100	-0.1
4400	1100	-0.1
4500	1100	-0.1
4600	1100	-0.1
[...]
CELL_DATA	3721
SCALARS T_zz double 1
LOOKUP_TABLE table0
-0.536236
-0.566416
-0.590426
-0.578392
-0.620917
-0.612609
-0.635598
-0.671249
-0.666228
-0.684812
-0.693407
-0.708647
-0.705445
-0.714722
-0.741233
-0.724101
-0.732952
-0.743555
-0.745164
-0.743965
-0.735069
-0.722082
-0.746387
-0.742395
-0.74495
-0.750716
-0.705283
-0.706405
-0.70413
-0.72221
-0.664343
-0.739068
-0.678946
-0.720025
-0.714104
-0.729877
-0.744648
-0.72502
-0.745393
-0.726416
-0.76502
-0.722426
-0.745712
-0.755947
-0.728892
-0.729115
-0.710666
-0.717183
-0.719631
-0.73347
-0.700324
-0.69754
-0.679713
-0.640915
-0.643396
-0.606427
-0.627753
-0.583174
-0.55376
-0.560298
-0.542652
-0.540189
-0.553573
-0.583257
-0.600655
-0.619076
-0.619617
-0.668806
-0.680204
-0.691744
-0.706631
-0.703066
-0.733432
-0.733977
-0.725967
-0.74851
-0.752164
-0.742976
-0.726925
-0.759303
-0.766156
-0.760368
-0.713494
-0.718271
-0.70472
-0.724611
-0.701809
-0.716171
-0.693834
-0.671633
-0.704826
-0.696963
-0.709868
-0.690893
-0.70622
-0.700394
-0.696692
-0.716305
-0.746641
-0.72472
-0.749699
-0.726406
-0.768905
-0.747855
-0.755614
-0.745969
-0.758619
-0.722578
-0.717965
-0.734217
-0.715083
-0.726258
-0.678065
-0.695767
-0.679251
-0.644945
-0.620008
-0.625924
-0.5966
-0.619431
-0.58497
-0.558643
-0.573144
-0.610246
-0.614534
-0.621466
-0.64662
-0.652898
-0.685532
-0.697768
-0.71602
-0.707465
-0.74249
-0.748777
-0.758266
-0.751485
-0.756419
-0.746654
-0.737026
-0.769096
-0.760688
-0.725347
-0.742848
-0.737074
-0.710143
-0.704959
-0.712729
-0.697464
-0.677352
-0.679275
-0.678977
-0.688048
-0.707656
-0.679622
-0.689793
-0.672227
-0.673447
-0.689224
-0.69326
-0.720847
-0.740221
-0.752904
-0.743606
-0.761774
-0.793156
-0.744204
-0.750518
-0.777694
-0.761513
-0.779413
-0.74288
-0.739328
-0.743093
-0.759131
-0.691389
-0.725477
-0.680904
-0.657972
-0.646018
-0.617716
-0.612335
-0.581222
-0.569186
-0.582287
-0.61155
-0.613225
-0.641147
-0.679465
-0.685693
-0.699588
-0.705031
-0.739549
-0.739603
-0.737808
-0.744222
-0.778334
-0.780191
-0.769282
-0.761275
-0.79719
-0.765329
-0.758009
-0.742893
-0.737734
-0.711756
-0.701359
-0.70406
-0.667712
-0.655632
-0.640441
-0.651432
-0.624532
-0.630189
-0.622981
-0.650202
-0.645253
-0.64085
-0.648857
-0.647157
-0.681513
-0.712086
-0.705972
-0.704192
-0.72881
-0.739809
-0.738468
-0.776846
-0.778384
-0.782902
-0.751787
-0.801784
-0.765967
-0.750248
-0.760689
-0.729587
-0.727732
-0.71858
-0.691726
-0.681961
-0.656214
-0.652874
-0.618706
-0.614351
-0.606671
-0.625916
-0.62728
-0.66543
-0.670422
-0.676281
-0.717356
-0.727022
-0.737739
-0.756537
-0.756484
-0.783302
-0.748935
-0.762018
-0.784737
-0.800562
-0.777759
-0.764201
-0.753815
-0.750803
-0.72477
-0.730286
-0.675657
-0.684022
-0.671815
-0.633741
-0.591389
-0.584698
-0.605366
-0.576569
-0.574377
-0.556601
-0.571178
-0.59486
-0.572126
-0.606464
-0.639614
-0.635861
-0.635109
-0.664639
-0.698068
-0.73838
-0.699435
-0.753168
-0.778557
-0.733018
-0.789498
-0.757846
-0.784076
-0.772294
-0.785792
-0.771944
-0.761511
-0.759065
-0.747739
-0.719188
-0.709392
-0.669641
-0.679028
-0.647436
-0.610946
-0.602257
-0.646809
-0.626243
-0.696464
-0.716351
-0.711756
-0.744147
-0.74544
-0.794374
-0.78526
-0.751308
-0.77858
-0.781888
-0.764398
-0.783167
-0.784194
-0.783302
-0.770834
-0.756902
-0.745279
-0.728672
-0.692766
-0.660648
-0.638058
-0.598271
-0.554226
-0.551051
-0.528347
-0.491459
-0.495056
-0.473335
-0.486774
-0.482183
-0.485954
-0.501943
-0.513119
-0.533946
-0.565192
-0.595339
-0.633524
-0.644029
-0.678665
-0.690214
-0.734873
-0.754832
-0.771169
-0.776731
-0.784481
-0.776707
-0.833057
-0.791458
-0.781366
-0.774069
-0.765476
-0.770765
-0.744476
-0.727244
-0.717423
-0.680804
-0.669809
-0.6579
-0.616437
-0.633254
-0.672464
-0.700213
-0.708319
-0.745568
-0.747193
-0.777326
-0.787153
-0.797059
-0.798714
-0.814033
-0.793284
-0.778017
-0.837548
-0.779707
-0.765858
-0.754798
-0.719074
-0.73703
-0.656408
-0.648032
-0.578454
-0.563509
-0.53206
-0.491964
-0.468893
-0.416605
-0.379154
-0.374586
-0.390665
-0.37845
-0.386927
-0.38294
-0.399583
-0.437709
-0.447022
-0.489653
-0.525356
-0.561735
-0.600084
-0.632198
-0.693369
-0.668222
-0.736599
-0.745425
-0.770614
-0.790662
-0.787029
-0.80282
-0.822559
-0.767138
-0.806915
-0.777631
-0.773867
-0.772589
-0.713944
-0.748749
-0.715335
-0.671769
-0.683294
-0.650987
-0.681636
-0.742148
-0.721239
-0.731704
-0.765065
-0.736995
-0.783212
-0.811251
-0.801987
-0.818206
-0.83374
-0.807577
-0.818696
-0.807876
-0.805496
-0.771324
-0.747213
-0.679779
-0.654349
-0.629429
-0.577168
-0.51511
-0.48684
-0.424619
-0.364728
-0.331389
-0.293594
-0.259776
-0.238175
-0.219813
-0.21426
-0.225876
-0.241149
-0.271735
-0.297116
-0.325352
-0.384774
-0.422559
-0.469302
-0.534511
-0.589038
-0.610061
-0.664481
-0.694783
-0.736614
-0.753973
-0.781146
-0.827149
-0.789877
-0.81957
-0.818051
-0.856907
-0.814127
-0.772169
-0.782225
-0.764691
-0.734454
-0.749206
-0.716557
-0.726587
-0.670449
-0.693215
-0.72599
-0.752414
-0.78733
-0.769637
-0.784971
-0.810633
-0.820783
-0.829388
-0.833638
-0.793496
-0.833919
-0.832054
-0.769736
-0.781049
-0.737195
-0.711396
-0.66797
-0.609221
-0.539641
-0.490382
-0.440069
-0.344303
-0.301312
-0.231893
-0.172623
-0.123767
-0.0821161
-0.0516132
-0.0311451
-0.0243175
-0.0306135
-0.0505126
-0.0824337
-0.126373
-0.17359
-0.227285
-0.304968
-0.354383
-0.426885
-0.483719
-0.554364
-0.637763
-0.664313
-0.698473
-0.700809
-0.787721
-0.802851
-0.804984
-0.818437
-0.826182
-0.786608
-0.843321
-0.819843
-0.815585
-0.800429
-0.767646
-0.749386
-0.734567
-0.725945
-0.659804
-0.718411
-0.709783
-0.772669
-0.80809
-0.779062
-0.80715
-0.823985
-0.824525
-0.810122
-0.849505
-0.85193
-0.849602
-0.797119
-0.823045
-0.750617
-0.707488
-0.679903
-0.595891
-0.53853
-0.454706
-0.388765
-0.312755
-0.223176
-0.132945
-0.0533408
0.0224826
0.0894345
0.144956
0.189513
0.206155
0.21307
0.211233
0.183283
0.154381
0.0900198
0.0231033
-0.0527744
-0.134022
-0.224882
-0.301595
-0.403996
-0.476914
-0.549383
-0.600003
-0.659004
-0.691672
-0.761455
-0.766729
-0.811866
-0.817378
-0.849056
-0.845744
-0.849857
-0.836848
-0.82154
-0.827459
-0.8001
-0.75073
-0.740874
-0.738
-0.741344
-0.749976
-0.775639
-0.763302
-0.810634
-0.831893
-0.863577
-0.87315
-0.86851
-0.852211
-0.852088
-0.811756
-0.827165
-0.818337
-0.783424
-0.725764
-0.67885
-0.611116
-0.552401
-0.449811
-0.365732
-0.263247
-0.152934
-0.0399994
0.0691098
0.177529
0.265725
0.36761
0.438095
0.48033
0.516403
0.522271
0.508273
0.473566
0.429866
0.357754
0.272524
0.177306
0.0709648
-0.0395756
-0.155333
-0.254263
-0.351828
-0.452162
-0.53511
-0.6103
-0.653534
-0.728276
-0.77939
-0.81985
-0.819696
-0.838531
-0.845869
-0.883273
-0.830359
-0.871913
-0.835742
-0.803246
-0.803093
-0.797753
-0.744463
-0.744704
-0.727462
-0.777272
-0.800895
-0.806303
-0.824155
-0.847307
-0.852977
-0.860316
-0.878878
-0.889207
-0.857885
-0.85073
-0.799072
-0.742604
-0.681226
-0.630175
-0.547353
-0.462022
-0.340468
-0.219937
-0.0971677
0.0430645
0.178763
0.31534
0.456458
0.58106
0.682092
0.769682
0.830658
0.915887
0.918127
0.891382
0.852772
0.764997
0.686643
0.578335
0.451631
0.31928
0.179786
0.0419263
-0.0921526
-0.223422
-0.337927
-0.443021
-0.537533
-0.648389
-0.705455
-0.757803
-0.809398
-0.790227
-0.9011
-0.857491
-0.846471
-0.827973
-0.855311
-0.86427
-0.823967
-0.784013
-0.812448
-0.769493
-0.762936
-0.782334
-0.806426
-0.830028
-0.82069
-0.873756
-0.850565
-0.852367
-0.866653
-0.866401
-0.859905
-0.829195
-0.820459
-0.793814
-0.720952
-0.638594
-0.552376
-0.439405
-0.346488
-0.201128
-0.0584628
0.105404
0.271885
0.453059
0.624737
0.764349
0.958572
1.0596
1.22362
1.23693
1.36528
1.33513
1.36708
1.29361
1.20876
1.07789
0.952055
0.802532
0.624559
0.448995
0.285793
0.10422
-0.0575518
-0.208479
-0.35409
-0.455543
-0.57667
-0.631828
-0.719714
-0.77883
-0.801263
-0.84901
-0.883565
-0.840925
-0.906144
-0.875542
-0.845088
-0.817889
-0.826944
-0.810841
-0.784703
-0.78502
-0.792383
-0.857245
-0.826827
-0.872025
-0.852922
-0.865958
-0.901514
-0.903285
-0.898845
-0.905391
-0.848534
-0.826649
-0.739128
-0.69808
-0.600385
-0.482816
-0.378844
-0.21823
-0.045803
0.143991
0.335436
0.56815
0.786062
1.00908
1.22961
1.36444
1.59148
1.71526
1.88708
1.89598
1.96332
1.9286
1.83887
1.73325
1.54836
1.37988
1.18163
0.981895
0.795111
0.535531
0.343479
0.142527
-0.0469022
-0.219058
-0.373246
-0.490204
-0.583477
-0.688732
-0.733153
-0.823271
-0.826949
-0.849912
-0.907163
-0.897884
-0.892609
-0.907115
-0.890022
-0.837002
-0.841516
-0.825177
-0.795322
-0.800786
-0.828649
-0.885515
-0.899247
-0.908056
-0.899134
-0.906683
-0.90756
-0.919638
-0.88013
-0.829931
-0.794936
-0.732855
-0.636249
-0.516293
-0.40212
-0.244446
-0.0650822
0.145649
0.358187
0.603765
0.839855
1.1632
1.45445
1.71008
1.9198
2.12457
2.29645
2.44353
2.56457
2.70244
2.56513
2.56164
2.35043
2.17144
1.90757
1.66128
1.4516
1.17944
0.885762
0.633401
0.3769
0.143906
-0.0660208
-0.247167
-0.421935
-0.549852
-0.638873
-0.698639
-0.815687
-0.84828
-0.88841
-0.921483
-0.874802
-0.900803
-0.903467
-0.904584
-0.867256
-0.864571
-0.8371
-0.809753
-0.813215
-0.837667
-0.868039
-0.891271
-0.915826
-0.937674
-0.900544
-0.906046
-0.906478
-0.906482
-0.853921
-0.758661
-0.715302
-0.582577
-0.467038
-0.302375
-0.110641
0.111478
0.371021
0.669985
0.962651
1.27575
1.60223
1.88239
2.25119
2.579
2.85501
3.07656
3.24233
3.31376
3.436
3.48288
3.21155
3.02395
2.91976
2.5876
2.24074
2.05059
1.5739
1.24792
0.952057
0.644047
0.354765
0.113438
-0.114848
-0.293152
-0.452329
-0.561194
-0.701474
-0.764671
-0.84745
-0.89911
-0.909045
-0.909698
-0.914847
-0.955116
-0.924746
-0.892758
-0.86359
-0.843888
-0.821554
-0.819498
-0.846246
-0.898233
-0.890864
-0.923698
-0.948564
-0.954601
-0.918819
-0.911398
-0.8842
-0.835524
-0.73923
-0.674322
-0.554539
-0.373078
-0.18146
0.0450776
0.305495
0.624498
0.935744
1.38376
1.73801
2.10122
2.52899
2.95461
3.37388
3.5735
3.88139
4.23699
4.16256
4.45049
4.21338
3.92399
3.87112
3.68395
3.31807
2.91998
2.54788
2.13852
1.75108
1.31114
0.944891
0.596293
0.309342
0.0439018
-0.17929
-0.37577
-0.536367
-0.682663
-0.737081
-0.801213
-0.869392
-0.930291
-0.943224
-0.951436
-0.906625
-0.945879
-0.878927
-0.921487
-0.871746
-0.848718
-0.851334
-0.906583
-0.931801
-0.937871
-0.96061
-0.988912
-0.954635
-0.940953
-0.952525
-0.87244
-0.822593
-0.714501
-0.620759
-0.46495
-0.277693
-0.0518994
0.228268
0.539209
0.883029
1.30885
1.70407
2.20268
2.73429
3.3188
3.66871
4.15044
4.72582
5.1171
5.33992
5.4772
5.3557
5.3468
5.33707
4.92965
4.59603
4.15449
3.64549
3.31548
2.78338
2.30983
1.7635
1.28709
0.910609
0.537798
0.2095
-0.0558778
-0.28881
-0.457808
-0.624243
-0.712321
-0.843826
-0.853656
-0.944249
-0.926947
-0.97297
-0.978003
-0.939954
-0.912268
-0.929365
-0.89161
-0.901142
-0.844776
-0.902432
-0.954304
-0.942089
-0.960977
-1.01715
-0.959168
-1.02926
-0.913338
-0.878249
-0.801768
-0.696816
-0.565719
-0.401671
-0.175331
0.0888836
0.412282
0.770516
1.20558
1.72457
2.32623
2.88979
3.30708
3.99115
4.45316
5.30393
5.63318
6.20729
6.28096
6.58027
6.26073
6.69737
6.564
6.01283
5.52856
5.1354
4.59909
3.98914
3.37633
2.89316
2.24992
1.74055
1.24873
0.813781
0.408875
0.0905342
-0.177629
-0.386886
-0.555031
-0.719293
-0.822827
-0.8886
-0.906156
-0.939296
-0.951487
-0.969918
-0.957828
-0.961535
-0.968253
-0.939008
-0.873364
-0.872145
-0.927988
-0.932804
-0.951226
-0.988489
-1.00098
-0.99756
-0.966862
-0.924548
-0.853356
-0.795444
-0.671643
-0.540733
-0.315744
-0.0672901
0.242268
0.611606
1.07602
1.55183
2.19273
2.77727
3.46224
4.20565
4.92174
5.76897
6.34601
6.9796
7.23551
7.5929
8.14177
8.07096
8.11308
7.75186
7.62555
6.69211
6.26044
5.56032
5.05253
4.10296
3.51668
2.79661
2.1415
1.5895
1.0413
0.611174
0.24086
-0.0654193
-0.312497
-0.491957
-0.657236
-0.771262
-0.851658
-0.935028
-1.01921
-0.965239
-0.976073
-1.00393
-0.990279
-0.934529
-0.93901
-0.89906
-0.895097
-0.917832
-0.981938
-0.981178
-1.00724
-1.00833
-1.0412
-0.970559
-0.975156
-0.859465
-0.750029
-0.665179
-0.457352
-0.235384
0.0482827
0.400876
0.844243
1.33374
1.87107
2.5392
3.36012
4.21597
4.92141
5.90405
6.99762
7.54931
8.31149
8.8309
9.37712
9.61866
9.928
9.59581
8.79654
8.91941
8.25899
7.59751
7.17498
6.00593
4.9983
4.16724
3.37703
2.64875
1.93399
1.34661
0.843888
0.409482
0.0509619
-0.241536
-0.464544
-0.649241
-0.774032
-0.851319
-0.936067
-0.976704
-0.997077
-1.01342
-1.02702
-1.01812
-0.977045
-0.965095
-0.937699
-0.937639
-0.997129
-1.0088
-1.03026
-0.997103
-1.02951
-1.03649
-1.00815
-0.923506
-0.876241
-0.763781
-0.62149
-0.416494
-0.157384
0.171005
0.570983
1.03427
1.60421
2.32136
3.18216
4.09555
4.82993
5.942
7.12707
7.9621
9.41702
10.1237
10.8168
10.9295
11.1324
11.83
11.7164
11.0714
10.5936
10.1701
8.77724
8.21547
7.00707
5.87057
4.87298
3.96088
3.0478
2.35307
1.64002
1.07688
0.586802
0.168127
-0.155444
-0.409965
-0.605461
-0.777231
-0.874968
-0.932103
-0.96305
-1.03906
-1.02893
-1.00949
-1.06075
-1.00526
-0.969766
-0.94194
-0.981342
-0.953896
-1.00051
-1.05136
-1.02651
-1.05518
-1.04144
-1.01774
-0.974429
-0.85315
-0.762143
-0.57529
-0.366235
-0.0813656
0.278736
0.754493
1.32625
1.95232
2.75647
3.61495
4.71228
5.94715
7.15251
8.23896
9.46111
10.4473
11.5859
12.8823
13.2633
13.6342
14.1192
13.7848
13.4764
12.8728
11.7638
10.7823
9.30842
8.17626
6.84876
5.83087
4.66911
3.67044
2.8282
2.00351
1.33036
0.750518
0.282421
-0.0824892
-0.375454
-0.566353
-0.775749
-0.900805
-0.966207
-1.0072
-1.0518
-1.0626
-1.07431
-1.04535
-1.04002
-0.992964
-0.94386
-0.948742
-1.01739
-1.01416
-1.00927
-1.06832
-1.05746
-1.05846
-0.995301
-0.964409
-0.889278
-0.785585
-0.558975
-0.334432
-0.0106525
0.405019
0.91635
1.58263
2.28327
3.2093
4.17266
5.46383
6.37622
8.01603
9.77859
10.7519
12.5604
13.5915
14.2339
15.2599
15.5685
16.0872
15.8547
15.3704
14.1267
13.7357
12.5658
11.2407
9.77769
8.27524
6.77207
5.55886
4.20529
3.15291
2.29308
1.53969
0.877257
0.400738
-0.0108997
-0.327614
-0.573024
-0.759328
-0.892102
-0.983089
-1.06161
-1.04297
-1.0759
-1.05532
-1.04756
-1.01861
-0.998839
-0.985547
-1.00256
-1.03748
-1.06285
-1.07036
-1.07147
-1.07537
-1.10668
-1.095
-0.988172
-0.857181
-0.753547
-0.53337
-0.29723
0.0515638
0.48273
1.08579
1.84286
2.6361
3.54437
4.92169
6.18037
7.49074
9.50874
10.7165
12.6824
13.9015
15.4656
17.273
17.392
18.3438
18.8143
17.8695
17.9936
16.0741
15.6303
14.2707
12.7587
10.7361
9.15561
7.74779
6.37897
4.85281
3.64383
2.55053
1.70403
1.06116
0.505089
0.0513695
-0.299526
-0.572859
-0.767494
-0.905663
-0.962867
-1.065
-1.06308
-1.09229
-1.08658
-1.05067
-1.05777
-1.03948
-0.979647
-1.0256
-1.0255
-1.08544
-1.05424
-1.12509
-1.11271
-1.09108
-1.08086
-0.98844
-0.894862
-0.754765
-0.565742
-0.277454
0.103234
0.564544
1.15937
1.95994
2.92992
4.31194
5.28724
6.8829
9.1324
10.9732
12.9421
14.6899
16.0602
17.8447
19.7831
20.0569
21.8404
20.6147
21.081
21.2666
19.5235
17.8846
16.1824
14.9836
12.4108
10.1808
8.72346
6.82768
5.46362
4.12172
2.99879
1.94695
1.22297
0.597721
0.105008
-0.268881
-0.568013
-0.760799
-0.912342
-0.989299
-1.06063
-1.08899
-1.0968
-1.12365
-1.07644
-1.1026
-1.06725
-1.02299
-1.02183
-1.05498
-1.09006
-1.12405
-1.16529
-1.16221
-1.14527
-1.09446
-1.02391
-0.899215
-0.771895
-0.565835
-0.258165
0.135053
0.65222
1.2925
2.15041
3.27153
4.5092
5.81909
7.91856
9.89832
12.2377
14.4266
16.5607
18.8162
20.972
21.8495
23.3482
24.6113
24.6225
24.6685
22.7897
22.4333
19.6936
19.0537
16.1308
14.4293
11.3153
9.60576
7.90236
6.14825
4.27957
3.21406
2.2297
1.28565
0.639357
0.142534
-0.259925
-0.54643
-0.779974
-0.917326
-1.0104
-1.07638
-1.12755
-1.15758
-1.12848
-1.12243
-1.06892
-1.06308
-1.0088
-1.04235
-1.10391
-1.09507
-1.1328
-1.16532
-1.16663
-1.15456
-1.12945
-1.06647
-0.954406
-0.789729
-0.589355
-0.258896
0.149575
0.702102
1.42365
2.36041
3.47379
4.89416
6.40552
8.36701
10.8602
13.1471
15.5236
18.6924
21.2592
23.916
25.5317
26.316
27.9902
28.074
27.9291
26.3825
26.0546
22.4736
21.0525
18.2227
15.5113
13.037
10.7471
8.19504
6.48379
4.74603
3.4107
2.28142
1.4083
0.685861
0.147472
-0.2648
-0.570324
-0.778885
-0.961874
-1.06395
-1.12381
-1.14926
-1.17364
-1.16317
-1.18272
-1.12055
-1.06881
-1.06085
-1.01653
-1.11732
-1.13686
-1.1393
-1.19373
-1.17498
-1.18535
-1.15935
-1.05402
-0.995001
-0.80528
-0.587788
-0.293977
0.144447
0.70614
1.49725
2.43061
3.68634
5.21014
6.94041
9.42342
11.3305
14.3908
17.1321
20.0887
24.1564
26.4485
28.1143
30.1948
30.6293
31.4717
31.9687
30.3217
28.6311
25.1985
23.3448
20.3132
17.8451
14.621
11.7997
9.08803
7.24642
5.11619
3.56682
2.47198
1.47689
0.713282
0.137116
-0.278688
-0.615792
-0.828582
-0.961302
-1.07489
-1.14702
-1.19286
-1.211
-1.19846
-1.14994
-1.119
-1.11261
-1.08845
-1.06799
-1.10278
-1.12621
-1.18454
-1.17673
-1.18193
-1.18546
-1.17756
-1.14848
-1.03316
-0.861173
-0.627709
-0.336294
0.117805
0.707752
1.46278
2.45664
3.71988
5.43483
7.25859
10.0644
12.454
15.235
18.5579
22.9201
25.7075
28.6829
31.1514
31.1968
34.502
36.4509
35.1548
33.9446
32.1552
29.3467
25.1829
22.6111
18.7378
15.3623
12.6868
9.75878
7.27944
5.45722
3.83904
2.49496
1.51839
0.69517
0.121108
-0.32896
-0.642664
-0.89582
-1.01758
-1.07633
-1.16995
-1.22241
-1.19977
-1.16254
-1.17018
-1.11204
-1.10436
-1.06472
-1.05604
-1.10334
-1.14925
-1.22343
-1.23877
-1.27971
-1.22039
-1.22262
-1.13782
-1.07477
-0.869445
-0.701999
-0.383402
0.0611504
0.666179
1.49925
2.58301
3.77632
5.5141
7.83108
10.5277
12.8562
16.7611
19.9781
24.6069
27.5734
32.2056
35.1492
37.9946
39.0841
39.9409
40.7388
39.5374
36.0151
31.1187
28.1225
24.6948
20.5979
16.7352
13.2113
10.3824
7.6999
5.64928
3.7935
2.49688
1.4559
0.655785
0.0587351
-0.387378
-0.672373
-0.95708
-1.09744
-1.2164
-1.20127
-1.21636
-1.23408
-1.25462
-1.19729
-1.13993
-1.09686
-1.07758
-1.09036
-1.14064
-1.17083
-1.18538
-1.2512
-1.26738
-1.29874
-1.24598
-1.22891
-1.08551
-0.991845
-0.733657
-0.456965
-0.0233479
0.565182
1.36482
2.41896
3.76515
5.6794
7.81412
10.806
14.1636
17.2902
22.2408
26.0147
31.4104
35.2341
37.7159
42.3322
43.4643
44.4686
42.9771
41.2953
37.9861
34.263
31.3781
26.4923
22.2578
16.9688
13.2733
10.6333
7.93715
5.5154
3.89065
2.43707
1.3655
0.56646
-0.023138
-0.466059
-0.756202
-0.975226
-1.10076
-1.20831
-1.26089
-1.27208
-1.28449
-1.22
-1.24099
-1.16839
-1.16436
-1.0602
-1.13649
-1.13297
-1.19487
-1.19589
-1.25568
-1.31773
-1.31053
-1.24872
-1.21732
-1.16611
-1.07217
-0.832429
-0.536619
-0.133197
0.451988
1.25853
2.32575
3.69586
5.50282
8.068
10.7518
14.2655
18.5379
23.7021
28.9645
33.6845
37.969
41.654
43.6541
46.6639
48.5555
47.5274
45.7212
43.3444
38.093
33.2064
28.3229
22.7896
18.1972
13.8783
10.7255
7.73571
5.6034
3.58258
2.39049
1.21522
0.451967
-0.13356
-0.5416
-0.826021
-1.04264
-1.17281
-1.2304
-1.2539
-1.33801
-1.28723
-1.30402
-1.20343
-1.20958
-1.11062
-1.08795
-1.09012
-1.17287
-1.23542
-1.2678
-1.26347
-1.29137
-1.33659
-1.33362
-1.25523
-1.21125
-1.10471
-0.928642
-0.650272
-0.263727
0.297455
1.10143
2.14597
3.55252
5.4116
7.38259
10.563
14.0246
18.5459
23
30.3334
35.443
39.4809
47.1143
49.9426
53.0892
51.9862
51.9301
49.1846
47.4283
40.6943
35.3779
30.0688
23.7443
19.4068
13.7173
10.3807
8.00758
5.40779
3.52089
2.08655
1.1007
0.297685
-0.266002
-0.683946
-0.940364
-1.11658
-1.225
-1.28541
-1.33758
-1.37634
-1.35385
-1.26451
-1.29358
-1.21165
-1.09029
-1.07385
-1.13822
-1.18967
-1.20261
-1.27227
-1.31564
-1.31593
-1.34929
-1.34505
-1.33534
-1.28032
-1.23071
-1.00441
-0.769508
-0.426766
0.103357
0.839374
1.78726
3.17673
5.05145
7.4148
10.6633
13.9387
18.2524
24.3412
30.7765
37.8728
42.0458
49.1321
54.0117
58.3533
57.9435
55.7049
53.267
47.1162
43.9807
36.875
31.0314
24.2086
19.468
14.1423
10.7913
7.45306
5.1217
3.0846
1.79771
0.835089
0.107568
-0.416173
-0.802189
-1.02878
-1.23528
-1.27503
-1.34607
-1.37268
-1.34589
-1.34789
-1.26505
-1.2337
-1.18089
-1.18271
-1.1226
-1.08961
-1.17145
-1.20629
-1.25307
-1.31589
-1.35134
-1.33586
-1.36022
-1.37493
-1.3194
-1.27573
-1.1095
-0.883522
-0.568896
-0.0997981
0.565657
1.54351
2.92558
4.59468
6.87378
9.95027
13.8727
18.8169
24.7844
30.3131
37.6907
46.3393
53.0931
57.12
59.7705
61.5401
62.807
57.9096
51.0004
44.3094
38.1169
31.9391
25.0668
19.3647
13.8794
10.0633
7.09891
4.49437
2.67496
1.5162
0.565667
-0.102203
-0.571312
-0.941791
-1.13493
-1.2566
-1.37402
-1.38806