# vtk DataFile Version 3.0
Gravity inversion using rectangular prisms
ASCII
DATASET UNSTRUCTURED_GRID

POINTS	2912	double
250	250	250
250	250	750
125	125	1125
125	125	1375
125	375	1125
125	375	1375
375	125	1125
375	125	1375
375	375	1125
375	375	1375
250	250	1750
250	250	2250
250	250	2750
250	250	3250
250	750	250
250	750	750
250	750	1250
250	750	1750
250	750	2250
250	750	2750
250	750	3250
250	1250	250
250	1250	750
250	1250	1250
250	1250	1750
250	1250	2250
250	1250	2750
250	1250	3250
250	1750	250
250	1750	750
250	1750	1250
250	1750	1750
250	1750	2250
250	1750	2750
250	1750	3250
250	2250	250
250	2250	750
250	2250	1250
250	2250	1750
250	2250	2250
250	2250	2750
250	2250	3250
250	2750	250
250	2750	750
250	2750	1250
250	2750	1750
250	2750	2250
250	2750	2750
250	2750	3250
250	3250	250
250	3250	750
250	3250	1250
250	3250	1750
250	3250	2250
250	3250	2750
250	3250	3250
250	3750	250
250	3750	750
250	3750	1250
250	3750	1750
250	3750	2250
250	3750	2750
250	3750	3250
250	4250	250
250	4250	750
250	4250	1250
250	4250	1750
250	4250	2250
250	4250	2750
250	4250	3250
250	4750	250
250	4750	750
250	4750	1250
250	4750	1750
250	4750	2250
250	4750	2750
250	4750	3250
250	5250	250
250	5250	750
250	5250	1250
250	5250	1750
250	5250	2250
250	5250	2750
250	5250	3250
250	5750	250
250	5750	750
125	5625	1125
125	5625	1375
125	5875	1125
125	5875	1375
375	5625	1125
375	5625	1375
375	5875	1125
375	5875	1375
250	5750	1750
250	5750	2250
250	5750	2750
250	5750	3250
750	250	250
750	250	750
750	250	1250
750	250	1750
750	250	2250
750	250	2750
750	250	3250
750	750	250
750	750	750
750	750	1250
750	750	1750
750	750	2250
750	750	2750
750	750	3250
750	1250	250
750	1250	750
750	1250	1250
750	1250	1750
750	1250	2250
750	1250	2750
750	1250	3250
750	1750	250
750	1750	750
750	1750	1250
750	1750	1750
750	1750	2250
750	1750	2750
750	1750	3250
750	2250	250
750	2250	750
750	2250	1250
750	2250	1750
750	2250	2250
750	2250	2750
750	2250	3250
750	2750	250
750	2750	750
750	2750	1250
750	2750	1750
750	2750	2250
750	2750	2750
750	2750	3250
750	3250	250
750	3250	750
750	3250	1250
750	3250	1750
750	3250	2250
750	3250	2750
750	3250	3250
750	3750	250
750	3750	750
750	3750	1250
750	3750	1750
750	3750	2250
750	3750	2750
750	3750	3250
750	4250	250
750	4250	750
750	4250	1250
750	4250	1750
750	4250	2250
750	4250	2750
750	4250	3250
750	4750	250
750	4750	750
750	4750	1250
750	4750	1750
750	4750	2250
750	4750	2750
750	4750	3250
750	5250	250
750	5250	750
750	5250	1250
750	5250	1750
750	5250	2250
750	5250	2750
750	5250	3250
750	5750	250
750	5750	750
750	5750	1250
750	5750	1750
750	5750	2250
750	5750	2750
750	5750	3250
1250	250	250
1250	250	750
1250	250	1250
1250	250	1750
1250	250	2250
1250	250	2750
1250	250	3250
1250	750	250
1250	750	750
1250	750	1250
1250	750	1750
1250	750	2250
1250	750	2750
1250	750	3250
1250	1250	250
1250	1250	750
1250	1250	1250
1250	1250	1750
1250	1250	2250
1250	1250	2750
1250	1250	3250
1250	1750	250
1250	1750	750
1250	1750	1250
1250	1750	1750
1250	1750	2250
1250	1750	2750
1250	1750	3250
1250	2250	250
1250	2250	750
1250	2250	1250
1250	2250	1750
1250	2250	2250
1250	2250	2750
1250	2250	3250
1250	2750	250
1250	2750	750
1250	2750	1250
1250	2750	1750
1250	2750	2250
1250	2750	2750
1250	2750	3250
1250	3250	250
1250	3250	750
1250	3250	1250
1250	3250	1750
1250	3250	2250
1250	3250	2750
1250	3250	3250
1250	3750	250
1250	3750	750
1250	3750	1250
1250	3750	1750
1250	3750	2250
1250	3750	2750
1250	3750	3250
1250	4250	250
1250	4250	750
1250	4250	1250
1250	4250	1750
1250	4250	2250
1250	4250	2750
1250	4250	3250
1250	4750	250
1250	4750	750
1250	4750	1250
1250	4750	1750
1250	4750	2250
1250	4750	2750
1250	4750	3250
1250	5250	250
1250	5250	750
1250	5250	1250
1250	5250	1750
1250	5250	2250
1250	5250	2750
1250	5250	3250
1250	5750	250
1250	5750	750
1250	5750	1250
1250	5750	1750
1250	5750	2250
1250	5750	2750
1250	5750	3250
1750	250	250
1750	250	750
1750	250	1250
1750	250	1750
1750	250	2250
1750	250	2750
1750	250	3250
1750	750	250
1750	750	750
1750	750	1250
1750	750	1750
1750	750	2250
1750	750	2750
1750	750	3250
1750	1250	250
1750	1250	750
1750	1250	1250
1750	1250	1750
1750	1250	2250
1750	1250	2750
1750	1250	3250
1750	1750	250
1750	1750	750
1750	1750	1250
1750	1750	1750
1750	1750	2250
1750	1750	2750
1750	1750	3250
1750	2250	250
1750	2250	750
1750	2250	1250
1625	2125	1625
1625	2125	1875
1625	2375	1625
1625	2375	1875
1875	2125	1625
1875	2125	1875
1875	2375	1625
1875	2375	1875
1625	2125	2125
1625	2125	2375
1625	2375	2125
1625	2375	2375
1875	2125	2125
1875	2125	2375
1875	2375	2125
1875	2375	2375
1750	2250	2750
1750	2250	3250
1750	2750	250
1750	2750	750
1625	2625	1125
1625	2625	1375
1625	2875	1125
1625	2875	1375
1875	2625	1125
1875	2625	1375
1875	2875	1125
1875	2875	1375
1625	2625	1625
1625	2625	1875
1625	2875	1625
1625	2875	1875
1875	2625	1625
1875	2625	1875
1875	2875	1625
1875	2875	1875
1625	2625	2125
1625	2625	2375
1625	2875	2125
1625	2875	2375
1875	2625	2125
1875	2625	2375
1875	2875	2125
1875	2875	2375
1750	2750	2750
1750	2750	3250
1750	3250	250
1625	3125	625
1625	3125	875
1625	3375	625
1625	3375	875
1875	3125	625
1875	3125	875
1875	3375	625
1875	3375	875
1625	3125	1125
1625	3125	1375
1625	3375	1125
1625	3375	1375
1875	3125	1125
1875	3125	1375
1875	3375	1125
1875	3375	1375
1625	3125	1625
1625	3125	1875
1625	3375	1625
1625	3375	1875
1875	3125	1625
1875	3125	1875
1875	3375	1625
1875	3375	1875
1750	3250	2250
1750	3250	2750
1750	3250	3250
1750	3750	250
1625	3625	625
1625	3625	875
1625	3875	625
1625	3875	875
1875	3625	625
1875	3625	875
1875	3875	625
1875	3875	875
1625	3625	1125
1625	3625	1375
1625	3875	1125
1625	3875	1375
1875	3625	1125
1875	3625	1375
1875	3875	1125
1875	3875	1375
1625	3625	1625
1625	3625	1875
1625	3875	1625
1625	3875	1875
1875	3625	1625
1875	3625	1875
1875	3875	1625
1875	3875	1875
1625	3625	2125
1625	3625	2375
1625	3875	2125
1625	3875	2375
1875	3625	2125
1875	3625	2375
1875	3875	2125
1875	3875	2375
1750	3750	2750
1750	3750	3250
1750	4250	250
1750	4250	750
1625	4125	1125
1625	4125	1375
1625	4375	1125
1625	4375	1375
1875	4125	1125
1875	4125	1375
1875	4375	1125
1875	4375	1375
1750	4250	1750
1750	4250	2250
1750	4250	2750
1750	4250	3250
1750	4750	250
1750	4750	750
1750	4750	1250
1750	4750	1750
1750	4750	2250
1750	4750	2750
1750	4750	3250
1750	5250	250
1750	5250	750
1750	5250	1250
1750	5250	1750
1750	5250	2250
1750	5250	2750
1750	5250	3250
1750	5750	250
1750	5750	750
1750	5750	1250
1750	5750	1750
1750	5750	2250
1750	5750	2750
1750	5750	3250
2250	250	250
2250	250	750
2250	250	1250
2250	250	1750
2250	250	2250
2250	250	2750
2250	250	3250
2250	750	250
2250	750	750
2250	750	1250
2250	750	1750
2250	750	2250
2250	750	2750
2250	750	3250
2250	1250	250
2250	1250	750
2250	1250	1250
2250	1250	1750
2250	1250	2250
2250	1250	2750
2250	1250	3250
2250	1750	250
2250	1750	750
2250	1750	1250
2125	1625	1625
2125	1625	1875
2125	1875	1625
2125	1875	1875
2375	1625	1625
2375	1625	1875
2375	1875	1625
2375	1875	1875
2125	1625	2125
2125	1625	2375
2125	1875	2125
2125	1875	2375
2375	1625	2125
2375	1625	2375
2375	1875	2125
2375	1875	2375
2250	1750	2750
2250	1750	3250
2250	2250	250
2125	2125	625
2125	2125	875
2125	2375	625
2125	2375	875
2375	2125	625
2375	2125	875
2375	2375	625
2375	2375	875
2125	2125	1125
2125	2125	1375
2125	2375	1125
2125	2375	1375
2375	2125	1125
2375	2125	1375
2375	2375	1125
2375	2375	1375
2125	2125	1625
2125	2125	1875
2125	2375	1625
2125	2375	1875
2375	2125	1625
2375	2125	1875
2375	2375	1625
2375	2375	1875
2125	2125	2125
2125	2125	2375
2125	2375	2125
2125	2375	2375
2375	2125	2125
2375	2125	2375
2375	2375	2125
2375	2375	2375
2125	2125	2625
2125	2125	2875
2125	2375	2625
2125	2375	2875
2375	2125	2625
2375	2125	2875
2375	2375	2625
2375	2375	2875
2250	2250	3250
2250	2750	250
2125	2625	625
2125	2625	875
2125	2875	625
2125	2875	875
2375	2625	625
2375	2625	875
2375	2875	625
2375	2875	875
2125	2625	1125
2125	2625	1375
2125	2875	1125
2125	2875	1375
2375	2625	1125
2375	2625	1375
2375	2875	1125
2375	2875	1375
2125	2625	1625
2125	2625	1875
2125	2875	1625
2125	2875	1875
2375	2625	1625
2375	2625	1875
2375	2875	1625
2375	2875	1875
2125	2625	2125
2125	2625	2375
2125	2875	2125
2125	2875	2375
2375	2625	2125
2375	2625	2375
2375	2875	2125
2375	2875	2375
2125	2625	2625
2125	2625	2875
2125	2875	2625
2125	2875	2875
2375	2625	2625
2375	2625	2875
2375	2875	2625
2375	2875	2875
2250	2750	3250
2125	3125	125
2125	3125	375
2125	3375	125
2125	3375	375
2375	3125	125
2375	3125	375
2375	3375	125
2375	3375	375
2125	3125	625
2125	3125	875
2125	3375	625
2125	3375	875
2375	3125	625
2375	3125	875
2375	3375	625
2312.5	3312.5	812.5
2312.5	3312.5	937.5
2312.5	3437.5	812.5
2312.5	3437.5	937.5
2437.5	3312.5	812.5
2437.5	3312.5	937.5
2437.5	3437.5	812.5
2437.5	3437.5	937.5
2125	3125	1125
2125	3125	1375
2125	3375	1125
2125	3375	1375
2375	3125	1125
2375	3125	1375
2312.5	3312.5	1062.5
2312.5	3312.5	1187.5
2312.5	3437.5	1062.5
2312.5	3437.5	1187.5
2437.5	3312.5	1062.5
2437.5	3312.5	1187.5
2437.5	3437.5	1062.5
2437.5	3437.5	1187.5
2375	3375	1375
2125	3125	1625
2125	3125	1875
2125	3375	1625
2125	3375	1875
2375	3125	1625
2375	3125	1875
2375	3375	1625
2375	3375	1875
2125	3125	2125
2125	3125	2375
2125	3375	2125
2125	3375	2375
2375	3125	2125
2375	3125	2375
2375	3375	2125
2375	3375	2375
2125	3125	2625
2125	3125	2875
2125	3375	2625
2125	3375	2875
2375	3125	2625
2375	3125	2875
2375	3375	2625
2375	3375	2875
2250	3250	3250
2125	3625	125
2125	3625	375
2125	3875	125
2125	3875	375
2375	3625	125
2375	3625	375
2375	3875	125
2375	3875	375
2125	3625	625
2125	3625	875
2125	3875	625
2125	3875	875
2312.5	3562.5	562.5
2312.5	3562.5	687.5
2312.5	3687.5	562.5
2312.5	3687.5	687.5
2437.5	3562.5	562.5
2437.5	3562.5	687.5
2437.5	3687.5	562.5
2437.5	3687.5	687.5
2312.5	3562.5	812.5
2312.5	3562.5	937.5
2312.5	3687.5	812.5
2312.5	3687.5	937.5
2437.5	3562.5	812.5
2437.5	3562.5	937.5
2437.5	3687.5	812.5
2437.5	3687.5	937.5
2312.5	3812.5	562.5
2312.5	3812.5	687.5
2312.5	3937.5	562.5
2312.5	3937.5	687.5
2437.5	3812.5	562.5
2437.5	3812.5	687.5
2437.5	3937.5	562.5
2437.5	3937.5	687.5
2312.5	3812.5	812.5
2312.5	3812.5	937.5
2312.5	3937.5	812.5
2312.5	3937.5	937.5
2437.5	3812.5	812.5
[...]
CELL_DATA	2912
SCALARS model double 1
LOOKUP_TABLE table0
-0.0211536
-6.06261
47.7011
49.077
44.2604
47.5869
44.7652
47.8106
42.0038
46.563
1.35285
-37.8904
-43.054
-44.8236
-0.0107848
-6.85169
28.0046
5.15746
-28.4877
-36.7221
-39.8641
-0.0274486
-4.41709
24.2824
7.69508
-20.5101
-30.0577
-34.0495
-0.036305
-3.23852
16.9113
5.93605
-16.0199
-24.6838
-28.6876
-0.0475719
-2.19574
12.3148
3.73389
-13.5186
-20.7017
-24.3737
-0.0421314
-2.38898
9.92859
3.18013
-11.784
-18.1676
-21.6112
-0.0388324
-2.1006
10.6198
4.00611
-11.2637
-17.6224
-20.9772
-0.027802
-1.84133
12.5984
4.82744
-12.6092
-19.3289
-22.6453
-0.0220089
-2.58514
17.1296
6.57871
-15.3715
-22.8318
-26.1199
-0.026677
-3.96615
26.9915
7.53924
-20.6806
-27.9642
-30.7941
-0.0258972
-6.25601
32.527
0.0572155
-31.3326
-34.9501
-36.1915
-0.0281999
-4.76906
41.4827
43.6573
44.3164
44.9243
38.5677
42.3747
41.0321
43.5205
-4.97535
-38.0881
-38.9629
-39.0726
-0.0190022
-6.82295
29.4435
5.76297
-28.9732
-37.5713
-40.8078
-0.0333711
-4.67158
10.6973
3.66256
-21.9283
-31.6583
-35.79
-0.039758
-3.24595
8.22658
2.6221
-16.7787
-25.8015
-30.0982
-0.0275159
-3.15941
2.29148
-1.21923
-14.538
-21.1372
-24.8604
-0.0371733
-2.93195
-0.600342
-5.28598
-13.7619
-17.578
-20.5339
-0.0261839
-2.57482
-3.16845
-8.42624
-13.7698
-15.4964
-17.7957
-0.0222795
-2.11163
-2.83833
-10.113
-15.1364
-15.7878
-17.548
-0.0144599
-1.78867
-2.39815
-10.8731
-17.8638
-18.4764
-19.9069
-0.0185699
-1.37371
0.588667
-7.97502
-19.9732
-22.2155
-23.7761
-0.0351075
-1.09442
8.15419
-2.59307
-21.4504
-26.0473
-27.9991
-0.0261961
-2.96765
12.081
-1.41081
-25.9267
-30.6101
-32.2937
-0.0141697
-5.15953
25.6924
0.57589
-29.0164
-33.0135
-34.356
-0.0301456
-4.29912
23.8819
7.92298
-21.4936
-31.7922
-36.0044
-0.0401438
-3.51824
7.6804
2.76446
-16.7682
-26.3041
-30.8377
-0.014347
-3.26424
3.49363
-0.609731
-12.5893
-20.0429
-24.4356
-0.0300685
-3.23204
-3.31192
-4.22967
-8.45637
-13.218
-17.3735
-0.0560994
-3.90898
-8.94532
-6.62879
-3.85653
-6.24283
-10.2552
-0.0561961
-5.45181
-17.901
-10.4634
-1.4689
-1.51859
-5.12754
-0.0588344
-5.16307
-26.0735
-17.1834
-4.85725
-2.10473
-4.7463
-0.047734
-2.72953
-28.5364
-24.047
-12.8199
-8.23045
-9.55374
0.00190101
0.216714
-16.5906
-25.195
-21.2277
-16.6209
-16.9097
-0.0195353
-0.500343
-2.25229
-16.5301
-24.0428
-22.741
-23.108
-0.000862954
-1.86131
7.54643
-5.4667
-23.1925
-25.92
-27.115
-0.0227871
-1.42266
19.4821
2.1864
-21.5364
-26.2233
-28.1888
-0.009936
-3.78579
16.5733
5.98337
-17.1045
-27.0059
-31.4638
-0.0148794
-3.33063
1.9477
0.256894
-12.9171
-21.0958
-25.6612
-0.0160833
-3.46062
-1.76245
-0.765265
-4.94382
-11.5496
-16.7084
0.00255819
-5.84949
-6.16989
5.46104
9.90444
2.82474
-3.9602
0.0138125
-8.63517
-1.85988
18.6741
19.2596
18.9027
19.4463
19.6497
19.9649
19.928
20.1855
28.8757
29.0636
29.0658
29.2205
29.4239
29.4849
29.6433
29.6621
20.3588
11.4553
0.0365165
-14.0497
-8.30457
1.94167
-7.22925
4.3423
13.197
25.6701
18.5659
32.3486
30.1075
31.1909
29.9301
31.1458
31.7508
32.1107
32.4846
32.576
43.545
43.8509
43.6282
43.941
44.44
44.5379
44.5674
44.654
33.9148
23.8337
0.0402121
-23.183
-18.4422
-29.2238
-25.4645
-7.14505
5.14109
-18.2316
-4.13893
-10.0661
1.98939
-15.7227
-1.89413
21.7281
36.9829
16.7254
34.7941
12.8625
19.7814
9.75397
17.3323
47.7449
52.0143
45.95
50.3382
41.9354
35.0379
25.8488
0.0210286
-27.7928
-29.1194
-23.7807
-32.0799
-27.4347
-15.4706
-35.4937
-27.9617
-21.1623
-6.96596
-28.916
-15.8466
6.26518
25.6917
-10.0043
9.07363
4.23435
11.7807
-4.0103
4.07318
37.593
42.5895
22.7134
29.4832
25.0725
25.3223
24.86
25.1973
26.0684
25.889
25.7837
25.747
23.0305
16.285
0.0816692
-20.6938
-31.4321
-19.8186
-32.2154
-23.9916
-23.7795
-8.24069
-32.161
-20.2494
-20.0767
-2.96119
2.03775
-0.520193
-0.0165803
2.09957
-23.606
-30.5589
-21.3852
-14.4559
-14.2538
0.00373309
-1.33265
-1.35691
-14.387
-22.3476
-20.7227
-20.9113
-0.00557662
-1.01646
12.9035
-0.433966
-16.7736
-19.6651
-21.5626
-0.0173713
-2.81064
12.0212
3.74577
-14.3073
-23.2735
-27.7236
-0.00855912
-3.59905
-0.424705
-0.571397
-8.66641
-15.9054
-20.7001
-0.00157593
-5.12399
-2.15853
6.2195
7.55008
-0.627236
-7.48152
0.0605907
-6.36204
7.89942
31.9162
32.6373
32.8594
33.3377
32.3562
33.0479
33.3471
33.7788
39.2212
39.3957
39.7499
39.8072
39.5943
39.6904
40.1494
40.1201
25.4742
14.3878
0.133495
-7.18565
1.84474
1.88183
15.1449
0.848149
17.3518
14.6518
36.6599
13.6577
26.696
30.2133
44.1324
35.7424
50.6469
58.5307
73.605
72.6358
75.2787
74.1511
76.0268
74.9498
76.418
78.4435
78.2769
81.5358
81.8616
82.4204
82.5076
82.6524
82.6685
83.6424
83.3686
57.0956
56.929
57.3898
57.165
57.4197
57.1888
57.7382
57.4399
42.6363
0.610364
7.0335
25.1618
17.5797
40.3863
28.6651
59.1031
48.408
85.8445
45.517
60.3301
61.7957
77.0349
85.7448
101.582
116.105
131.058
69.5846
73.2473
84.7275
86.4336
107.988
107.725
131.773
125.999
106.604
107.393
107.026
107.382
108.599
108.185
109.922
108.64
81.5848
81.3297
81.8062
81.4931
82.0063
81.6961
82.2654
81.8796
65.4903
0.642254
3.28043
0.71533
0.826911
1.37258
26.0905
5.30146
28.0202
21.4468
48.723
15.9118
50.338
66.1129
115.022
88.2549
118.749
126.96
121.46
129.376
137.911
143.199
142.597
146.793
73.5454
90.1625
78.7119
93.3812
149.047
160.528
156.613
160.859
157.977
161.982
170.058
171.634
172.007
173.094
176.961
96.2242
93.5557
98.932
94.834
154.31
139.579
165.858
145.188
84.3856
70.4857
83.724
71.6954
117.508
97.1362
116.279
96.7516
82.2073
82.179
82.1754
82.1449
82.9149
82.6055
82.8885
82.5801
70.319
0.521423
-2.27697
0.525945
-14.3351
5.27406
46.2216
4.29609
35.0613
9.34877
37.5885
-11.808
9.45498
70.2736
85.4393
68.3537
83.3413
103.775
118.168
104.617
117.703
121.959
132.043
118.698
129.385
150.449
154.875
148.265
152.658
57.7
66.8899
44.8506
56.2246
94.2224
99.981
76.6504
85.1636
95.5448
101.398
85.2246
93.6073
122.056
121.295
108.712
111.738
65.6246
83.8616
34.5599
54.5833
156.552
159.582
153.573
157.248
173.137
172.474
170.182
170.11
164.916
165.392
163.073
163.943
172.785
171.643
170.885
170.152
119.995
121.505
113.591
116.724
133.242
131.516
125.855
126.165
127.637
127.831
125.207
126.099
133.526
132.47
130.837
130.578
89.0019
89.163
64.7803
69.6014
156.987
139.018
124.219
113.781
92.1051
92.0832
91.1246
91.7152
95.4206
93.4845
93.6164
92.7362
70.0543
69.7769
69.7464
69.5499
70.511
70.1429
70.1817
69.905
56.5071
0.456258
-16.0898
0.303489
-2.20168
2.92535
6.0069
0.794493
-16.3802
-32.872
-18.7645
-50.6325
-46.7551
12.7697
12.968
4.46141
6.78908
30.304
25.4868
16.4667
16.1479
33.6221
35.6336
28.0717
31.5586
43.2166
42.4266
35.6407
37.2905
-44.887
-29.4359
0.740723
20.6996
-28.1897
-8.97609
56.199
57.0838
52.7797
54.5487
61.2058
60.8629
57.2095
58.0025
73.0285
-5.36749
16.3879
34.0865
39.0828
5.67521
13.767
76.5095
73.7423
31.8959
38.1952
39.0433
38.9865
38.1505
38.5156
40.139
39.544
39.0273
39.0133
32.9616
32.881
32.7342
32.7157
33.2337
33.086
32.9791
32.9063
25.9204
0.0760612
-17.0368
-52.8731
-53.0642
-52.7512
-53.1151
-53.0455
-52.9986
-53.1021
-53.2409
-31.4144
-31.1971
-31.5403
-31.3265
-31.1374
-30.9709
-31.5356
-31.2722
-7.78716
0.224409
-1.03716
-0.0283147
0.779814
-13.7643
-23.8924
-19.8221
-14.2519
-13.9337
-0.00316924
-1.18507
10.5706
-3.16488
-12.4465
-13.3107
-15.1727
-0.0171604
-2.69297
8.63127
2.5819
-12.5375
-20.9942
-25.4684
-0.00268775
-4.00791
-1.75974
0.0634034
-5.14222
-12.2257
-17.3523
-0.0188191
-4.96424
0.798975
14.0283
18.1861
7.75131
-0.549095
0.0737779
-2.35189
10.3221
22.4473
29.1421
43.8744
17.2801
30.3997
37.8032
53.2214
56.22
63.5041
63.7094
64.4597
64.4556
63.7515
63.8891
64.727
64.6482
42.888
28.6698
0.258133
5.91395
31.0077
26.7178
61.005
18.2549
46.7128
41.7898
82.1274
55.5904
71.0682
88.3856
103.366
70.2145
84.3134
109.365
121.606
79.5468
82.7575
108.752
108.935
91.1016
93.9997
123.299
121.764
115.566
116.329
117.179
116.932
116.377
116.769
118.238
117.506
84.4659
84.1534
84.8548
84.4964
84.669
84.3049
85.0745
84.6577
66.3639
0.149053
11.4937
1.50148
24.4393
0.00273041
16.4017
3.13943
33.4004
48.6532
93.785
79.851
134.187
68.7822
121.172
82.9656
113.082
93.0258
124.271
89.8435
120
100.14
131.342
170.911
127.897
142.51
173.294
185.49
156.571
167.597
211.305
218.851
141.563
134.015
176.03
159.298
161.305
149.678
201.852
178.72
118.795
100.43
133.885
111.226
129.361
109.347
146.338
121.035
114.724
95.7087
2.58533
35.3439
9.08899
64.6329
4.91455
59.6168
11.0837
48.2456
96.384
71.5703
129.336
61.7725
109.174
86.2457
144.504
114.655
190.744
111.477
145.204
131.837
166.139
134.954
170.782
162.689
198.582
195.233
214.925
210.817
227.232
220.56
235.665
241.604
251.159
164.06
248.714
157.007
204.235
194.851
242.328
170.016
217.719
212.316
260.418
260.005
282.94
290.842
307.095
272.347
292.819
306.326
318.831
231.913
233.418
248.337
255.594
255.413
260.953
261.777
267.282
269.747
273.127
268.697
284.087
278.964
357.133
331.814
211.255
182.298
233.706
193.52
245.032
206.867
275.374
221.888
145.624
119.493
149.628
120.75
162.054
131.614
168.119
133.827
126.833
106.11
9.52227
50.7538
99.6957
66.4442
117.966
76.4776
138.638
98.4187
164.615
10.4009
66.9808
117.997
56.1711
102.073
105.412
172.364
94.9767
155.827
10.462
39.4405
9.44573
52.8954
10.2821
49.3471
7.99848
54.4252
102.099
173.216
129.338
209.402
117.851
193.679
142.033
233.062
10.6209
61.8181
13.4329
64.9819
12.4609
72.9542
16.5821
83.7339
145.469
226.194
141.425
212.643
165.913
255.699
170.939
246.675
155
195.811
169.447
207.936
202.152
247.072
229.202
270.762
240.788
259.214
247.203
262.518
286.43
294.894
299.166
301.18
167.07
201.915
145.012
177.272
234.213
271.607
209.051
240.423
232.803
241.815
208.321
221.779
288.684
282.182
258.137
258.256
247.197
304.042
286.092
340.19
271.825
330.428
316.745
373.206
350.95
370.8
374.282
385.142
373.649
388.593
401.091
404.979
299.107
348.541
274.969
316.293
334.459
385.595
311.843
352.543
372.432
371.086
338.081
342.061
402.394
392.564
366.214
362.098
274.787
277.114
273.55
275.483
293.88
292.685
293.503
291.376
260.388
259.155
258.06
257.301
268.368
265.966
266.106
264.122
240.919
238.928
225.609
227.421
264.964
255.784
247.904
243.239
217.332
215.47
210.074
209.937
226.204
222.014
218.495
216.196
406.81
348.282
343.546
332.166
321.972
316.036
356.101
340.767
333.718
324.177
283.947
278.613
274.06
270.932
288.306
281.784
278.225
273.983
228.316
186.212
187.848
155.252
276.245
215.363
230.009
181.784
142.998
112.994
123.429
101.307
160.28
125.782
138.178
112.56
105.295
87.2757
7.45198
42.5313
74.9501
24.4021
45.7404
74.4942
119.376
48.5781
78.6732
1.68653
-17.314
21.2718
112.289
169.612
78.6163
117.997
141.788
201.664
104.29
143.522
4.1545
6.93927
98.6007
111.794
57.8353
74.8644
150.498
155.154
89.9552
101.639
127.776
129.544
98.6024
108.254
156.596
148.301
118.196
122.362
-21.4899
-23.5965
-29.6653
-28.9896
-16.4573
-20.7733
-27.2201
-27.3307
-0.895054
-0.35573
-6.10525
-4.01379
1.5879
1.34061
-4.45562
-2.73167
211.959
232.202
134.752
154.162
245.518
263.357
158.312
174.061
234.018
225.564
173.581
182.25
254.674
238.705
187.409
191.91
22.9958
18.6365
-0.620908
2.20523
30.54
22.7702
3.21534
4.55944
35.6552
35.7688
23.0256
27.0578
38.3151
37.415
24.7616
28.266
133.781
132.978
122.746
125.19
144.518
140.358
131.656
131.616
130.085
129.287
125.244
125.716
133.811
132.203
128.653
128.449
22.2201
42.5428
206.257
199.708
180.174
181.3
213.061
204.25
185.5
185.081
176.755
174.255
168.976
168.706
178.993
175.881
171.005
170.217
53.4521
53.3842
47.0695
48.8098
54.4165
54.1505
47.8521
49.4769
65.3836
120.805
108.196
55.7065
60.3738
151.223
128.702
73.5983
74.1764
75.5247
74.5148
73.1858
73.5416
76.5967
75.024
73.9057
73.9138
59.2168
58.9766
58.8222
58.6868
59.417
59.1163
59.0027
58.8165
48.0371
0.0275262
-58.1281
-44.5863
-26.6796
-42.8903
-60.9365
-41.5955
-39.3808
-46.0844
-24.2524
-4.19329
-38.5353
-25.9805
-14.3918
8.58041
-33.7481
-17.82
10.6293
17.4107
-12.7255
-4.80837
22.0465
28.1106
-4.90068
3.29486
9.64021
9.58878
9.05382
9.26673
9.80934
9.67345
9.18141
9.33755
13.6322
10.2417
-0.0406442
2.20928
-30.5347
-29.8076
-16.4454
-8.92163
-8.6583
0.00525696
-2.65146
6.60894
-5.03845
-9.0054
-8.80317
-10.8207
-0.0184269
-2.5554
8.15362
2.48647
-12.4741
-20.923
-25.4162
-0.00347768
-4.16118
-1.7895
0.0499672
-5.10246
-12.1608
-17.2906
-0.0170063
-5.05303
0.840442
14.7141
18.2193
7.83487
-0.444636
0.0784236
-2.86229
17.2663
31.1184
37.5649
53.4256
12.9738
26.5252
29.6077
45.3553
58.474
59.6418
60.5538
60.828
57.8126
59.2859
59.5836
60.3664
63.9024
64.075
64.8904
64.8423
63.6502
63.8941
64.619
64.65
43.0645
28.8803
0.275539
18.6629
46.47
42.1334
81.7015
5.64594
30.0362
25.7568
59.5022
69.8498
84.2913
108.817
121.361
54.8897
71.4142
87.1693
103.031
91.4148
95.1184
123.563
122.74
82.7243
89.1214
109.613
112.563
117.262
117.66
119.141
118.418
116.554
117.228
118.167
117.916
85.045
84.6767
85.4555
85.0336
84.851
84.5331
85.2487
84.8827
66.7739
0.0139461
14.1554
3.1378
35.9779
0.47934
10.5084
1.31277
27.0596
68.564
120.792
90.696
120.478
101.657
132.331
86.6792
117.157
97.2298
128.542
171.494
47.0031
92.3443
78.0126
133.393
155.981
167.18
210.909
218.365
126.517
141.734
172.17
184.502
161.312
150.128
201.698
178.935
141.845
135.559
175.994
160.178
129.908
110.755
146.802
122.344
120.842
106.998
134.753
116.335
115.295
96.3818
4.99569
38.3084
69.909
48.6503
84.4987
34.4919
65.8191
41.8911
77.6781
11.1189
62.4025
109.438
84.8964
144.11
53.3288
100.225
71.4751
129.016
2.4702
39.1546
8.22722
62.8596
169.294
250.199
171.012
218.329
212.39
260.492
159.087
205.151
195.013
242.477
272.309
292.351
306.122
318.254
259.878
282.302
290.464
306.317
119.14
191.853
135.598
171.41
162.812
199.091
116.574
152.012
135.509
171.7
219.887
234.508
240.755
249.881
195.19
213.627
210.608
225.859
283.412
278.413
349.482
330.522
231.185
232.276
262.744
266.245
270.896
272.18
246.351
253.296
253.401
258.632
267.463
244.737
206.931
274.992
221.9
210.799
182.739
233.047
193.779
162.443
132.406
168.536
134.679
146.721
121.828
150.818
123.293
127.181
106.815
10.3315
47.9058
8.03701
53.7837
10.5173
41.4426
9.50357
53.2752
115.786
192.407
139.994
231.484
100.114
171.361
126.095
206.775
12.4683
72.5426
16.5778
83.2303
11.8361
64.7299
14.1327
67.4664
164.131
254.194
169.531
245.502
143.057
223.769
139.716
210.91
8.6216
74.4233
138.188
95.9967
164.425
55.4365
106.408
70.731
124.454
9.21436
103.112
172.61
93.531
156.636
71.7705
126.066
61.8498
111.206
271.271
330.226
315.909
372.86
246.29
303.697
284.67
339.585
373.364
387.901
400.73
404.242
350.419
369.871
373.623
384.146
333.601
385.189
311.124
352.123
297.672
347.842
273.778
315.563
401.951
391.912
365.686
361.404
371.632
370.107
337.193
341.061
202.223
247.062
229.272
270.635
157.551
197.07
172.126
208.819
285.565
293.724
298.214
299.941
240.22
257.929
246.579
261.233
234.415
271.436
209.223
240.006
170.071
202.817
147.809
177.837
287.484
280.414
256.794
256.448
232.011
240.291
207.399
220.252
397.128
342.222
354.658
339.268
332.72
323.092
341.756
330.408
320.675
314.727
287.129
280.624
277.217
272.963
282.632
277.35
272.933
269.821
295.869
292.214
295.283
290.82
272.714
274.662
271.473
273.041
267.798
264.325
265.476
262.463
257.937
256.651
255.64
254.822
262.464
253.032
245.367
240.551
238.435
236.248
223.433
224.98
223.76
219.569
216.134
213.831
214.941
213.08
207.822
207.655
275.701
215.414
229.774
181.981
227.702
186.487
187.548
155.972
160.852
127.32
139.037
114.39
144.175
119.092
126.034
108.756
105.999
87.9935
21.2835
140.783
200.941
104.093
143.293
110.633
168.538
78.2956
117.806
4.15318
6.94237
6.82351
73.8799
120.192
48.8563
80.0569
46.6519
81.2306
29.1673
53.0484
1.62105
-15.5693
244.989
262.848
157.95
173.597
211.025
231.281
134.245
153.508
253.768
237.56
186.633
190.916
232.652
224.085
172.535
181.038
29.722
21.6599
2.70941
3.74002
22.183
17.5605
-0.998969
1.47778
37.0888
36.1241
23.7652
27.1389
34.3936
34.4596
22.0425
25.9349
150.074
153.686
89.7714
100.64
99.85
111.011
58.9591
74.3232
154.019
145.439
116.211
119.98
125.702
127.107
96.9755
106.209
-17.0271
-21.5981
-27.4281
-27.914
-21.3668
-24.0365
-29.1916
-29.2011
-0.330913
-0.6879
-6.08936
-4.57169
-2.3395
-2.01501
-7.28185
-5.49766
211.813
202.985
184.415
183.938
204.8
198.299
178.952
180.056
178.086
174.99
170.157
169.367
175.805
173.332
168.096
167.829
53.505
53.2328
47.0354
48.6267
52.8521
52.835
46.6075
48.3471
65.2519
141.765
137.599
129.195
129.051
133.503
132.268
122.621
124.597
131.978
130.403
126.934
126.731
128.997
128.333
124.29
124.853
20.8259
42.4773
151.195
128.988
73.8239
74.6462
121.073
109.183
56.5856
61.831
76.9749
75.3872
74.2706
74.2599
76.0203
74.9793
73.648
73.9405
59.754
59.4471
59.3353
59.1442
59.5863
59.3286
59.1851
59.0341
48.5106
0.0260561
-60.7671
-41.7966
-38.5376
-45.8434
-56.3846
-45.3238
-25.0853
-42.1419
-14.2059
9.042
-33.0437
-16.8407
-22.7739
-2.39476
-34.6491
-21.5805
22.743
28.9565
-3.73522
4.51971
13.1159
20.2835
-7.74316
0.234254
10.1777
10.0314
9.54366
9.69075
10.0883
9.99873
9.49922
9.66743
13.9353
10.5194
-0.0405081
1.89756
-30.1954
-29.5549
-16.2941
-8.77126
-8.51538
0.00225192
-1.90415
5.69478
-5.35565
-8.98808
-8.70325
-10.7197
-0.014923
-2.98493
11.2236
3.82141
-14.029
-23.0645
-27.5896
-0.0135141
-3.57369
-0.140118
-0.489446
-8.50652
-15.7212
-20.5438
-0.0137942
-4.79248
-2.64428
5.84197
7.52854
-0.42306
-7.23191
0.075177
-5.89908
5.89164
31.5246
32.0918
32.486
32.8018
30.9546
31.7037
31.8628
32.3812
39.3303
39.4373
39.8823
39.8656
39.0434
39.2334
39.5695
39.6441
25.7607
14.8313
0.163741
-0.216321
16.5421
11.9919
35.1418
-6.32315
4.49057
0.566875
16.3065
35.3522
50.658
58.1662
74.0216
18.1485
31.6731
33.3726
48.0279
73.3605
74.8101
76.8143
76.6601
71.137
73.5755
72.7725
74.4898
82.1396
82.1793
83.1439
82.8909
81.0221
81.3729
81.9257
82.0322
57.7532
57.5269
58.0807
57.7843
57.5025
57.3455
57.8068
57.5889
43.3632
0.565426
26.4202
58.2108
47.82
85.6841
8.39914
29.7616
19.8749
44.0357
85.118
101.673
115.43
130.826
47.363
62.4674
63.0609
78.5735
108.929
109.669
133.069
128.544
75.1063
81.8972
89.2805
94.0838
108.741
108.333
110.129
108.831
106.837
107.472
107.357
107.582
82.6257
82.2749
82.9049
82.4715
82.2336
81.9855
82.4767
82.1631
66.5474
1.46979
24.925
5.24335
26.8957
0.581688
3.19357
0.747273
1.32395
65.5743
114.98
83.6965
135.78
141.428
140.573
145.055
119.975
129.161
122.88
131.671
21.6484
49.0521
15.6715
44.2625
148.22
159.812
167.633
169.055
169.573
170.501
156.665
161.02
158.043
162.143
176.051
73.7302
90.9503
73.5763
93.6669
154.751
141.101
165.924
146.307
98.3149
96.9071
100.554
97.4815
119.166
99.8376
118.165
99.773
88.7383
78.7548
88.0287
79.7189
84.2804
83.8988
84.266
83.8782
83.6174
83.528
83.5949
83.4997
71.7226
5.24587
45.7748
4.01296
33.4459
0.495045
-0.0486198
0.705083
-12.8695
103.333
118.115
105.509
118.843
74.7972
91.4695
74.2075
90.5175
149.564
153.37
147.612
151.242
125.637
135.397
122.688
132.849
94.7589
101.247
76.7865
86.1184
62.6963
73.4217
49.5329
62.2564
121.15
119.721
107.833
110.307
98.5088
103.72
88.1046
95.9247
4.69683
31.0497
-15.9491
4.8838
170.564
169.712
167.686
167.411
156.851
159.861
153.97
157.587
170.433
169.299
168.581
167.843
164.024
164.629
162.232
163.213
130.808
128.949
125.523
125.378
119.797
121.191
115.366
118.092
131.569
130.529
128.981
128.687
126.769
127.031
124.426
125.335
60.3881
81.2
31.2252
53.1218
157.075
139.762
124.756
114.984
90.5474
91.2537
66.8035
72.2812
93.1069
91.1386
91.3624
90.402
89.9243
89.7775
88.9375
89.3553
70.8019
70.3978
70.4716
70.1582
70.3745
70.0954
70.0659
69.8669
57.5619
2.80901
3.0588
0.693777
-14.0112
0.608447
-15.0577
0.236823
-1.58735
29.1825
24.6699
15.4298
15.4026
13.8608
14.1538
5.43085
7.82467
41.3796
40.0814
34.0162
35.1206
33.2632
34.6151
27.7783
30.6109
-44.3453
-29.752
-35.0979
-22.4753
-46.962
-44.7429
55.4621
71.3856
-5.54472
16.3634
-0.247549
21.7959
-27.3256
-7.8659
77.9542
76.1303
33.4823
40.6642
37.7321
44.704
11.4036
21.4503
40.4494
39.7893
39.3448
39.2642
39.5149
39.3602
38.6443
38.8938
33.8073
33.6438
33.5481
33.4612
33.589
33.4911
33.3563
33.3222
26.8526
0.0632072
-27.2963
-24.1895
-11.8948
-20.711
-14.0236
-20.2967
-7.69407
-17.8617
-56.4051
-56.519
-56.493
-56.7465
-56.3726
-56.666
-56.3172
-56.7387
-34.4663
-34.3571