# vtk DataFile Version 3.0
Gravity effects
ASCII
DATASET UNSTRUCTURED_GRID

POINTS	11374	double
0	0	-0.1
0	2	-0.1
0	4	-0.1
0	6	-0.1
0	8	-0.1
0	10	-0.1
0	12	-0.1
0	14	-0.1
0	16	-0.1
0	18	-0.1
0	20	-0.1
0	22	-0.1
0	24	-0.1
0	26	-0.1
0	28	-0.1
0	30	-0.1
0	32	-0.1
0	34	-0.1
0	36	-0.1
0	38	-0.1
0	40	-0.1
0	42	-0.1
0	44	-0.1
0	46	-0.1
0	48	-0.1
0	50	-0.1
0	52	-0.1
0	54	-0.1
0	56	-0.1
0	58	-0.1
0	60	-0.1
0	62	-0.1
0	64	-0.1
0	66	-0.1
0	68	-0.1
0	70	-0.1
0	72	-0.1
0	74	-0.1
0	76	-0.1
0	78	-0.1
0	80	-0.1
0	82	-0.1
0	84	-0.1
0	86	-0.1
0	88	-0.1
0	90	-0.1
0	92	-0.1
0	94	-0.1
0	96	-0.1
0	98	-0.1
0	100	-0.1
0	102	-0.1
0	104	-0.1
0	106	-0.1
0	108	-0.1
0	110	-0.1
0	112	-0.1
0	114	-0.1
0	116	-0.1
0	118	-0.1
0	120	-0.1
0	122	-0.1
0	124	-0.1
0	126	-0.1
0	128	-0.1
0	130	-0.1
0	132	-0.1
0	134	-0.1
0	136	-0.1
0	138	-0.1
0	140	-0.1
0	142	-0.1
0	144	-0.1
0	146	-0.1
0	148	-0.1
0	150	-0.1
0	152	-0.1
0	154	-0.1
0	156	-0.1
0	158	-0.1
0	160	-0.1
0	162	-0.1
0	164	-0.1
0	166	-0.1
0	168	-0.1
0	170	-0.1
0	172	-0.1
0	174	-0.1
0	176	-0.1
0	178	-0.1
0	180	-0.1
0	182	-0.1
0	184	-0.1
0	186	-0.1
2	0	-0.1
2	2	-0.1
2	4	-0.1
2	6	-0.1
2	8	-0.1
2	10	-0.1
2	12	-0.1
2	14	-0.1
2	16	-0.1
2	18	-0.1
2	20	-0.1
2	22	-0.1
2	24	-0.1
2	26	-0.1
2	28	-0.1
2	30	-0.1
2	32	-0.1
2	34	-0.1
2	36	-0.1
2	38	-0.1
2	40	-0.1
2	42	-0.1
2	44	-0.1
2	46	-0.1
2	48	-0.1
2	50	-0.1
2	52	-0.1
2	54	-0.1
2	56	-0.1
2	58	-0.1
2	60	-0.1
2	62	-0.1
2	64	-0.1
2	66	-0.1
2	68	-0.1
2	70	-0.1
2	72	-0.1
2	74	-0.1
2	76	-0.1
2	78	-0.1
2	80	-0.1
2	82	-0.1
2	84	-0.1
2	86	-0.1
2	88	-0.1
2	90	-0.1
2	92	-0.1
2	94	-0.1
2	96	-0.1
2	98	-0.1
2	100	-0.1
2	102	-0.1
2	104	-0.1
2	106	-0.1
2	108	-0.1
2	110	-0.1
2	112	-0.1
2	114	-0.1
2	116	-0.1
2	118	-0.1
2	120	-0.1
2	122	-0.1
2	124	-0.1
2	126	-0.1
2	128	-0.1
2	130	-0.1
2	132	-0.1
2	134	-0.1
2	136	-0.1
2	138	-0.1
2	140	-0.1
2	142	-0.1
2	144	-0.1
2	146	-0.1
2	148	-0.1
2	150	-0.1
2	152	-0.1
2	154	-0.1
2	156	-0.1
2	158	-0.1
2	160	-0.1
2	162	-0.1
2	164	-0.1
2	166	-0.1
2	168	-0.1
2	170	-0.1
2	172	-0.1
2	174	-0.1
2	176	-0.1
2	178	-0.1
2	180	-0.1
2	182	-0.1
2	184	-0.1
2	186	-0.1
4	0	-0.1
4	2	-0.1
4	4	-0.1
4	6	-0.1
4	8	-0.1
4	10	-0.1
4	12	-0.1
4	14	-0.1
4	16	-0.1
4	18	-0.1
4	20	-0.1
4	22	-0.1
4	24	-0.1
4	26	-0.1
4	28	-0.1
4	30	-0.1
4	32	-0.1
4	34	-0.1
4	36	-0.1
4	38	-0.1
4	40	-0.1
4	42	-0.1
4	44	-0.1
4	46	-0.1
4	48	-0.1
4	50	-0.1
4	52	-0.1
4	54	-0.1
4	56	-0.1
4	58	-0.1
4	60	-0.1
4	62	-0.1
4	64	-0.1
4	66	-0.1
4	68	-0.1
4	70	-0.1
4	72	-0.1
4	74	-0.1
4	76	-0.1
4	78	-0.1
4	80	-0.1
4	82	-0.1
4	84	-0.1
4	86	-0.1
4	88	-0.1
4	90	-0.1
4	92	-0.1
4	94	-0.1
4	96	-0.1
4	98	-0.1
4	100	-0.1
4	102	-0.1
4	104	-0.1
4	106	-0.1
4	108	-0.1
4	110	-0.1
4	112	-0.1
4	114	-0.1
4	116	-0.1
4	118	-0.1
4	120	-0.1
4	122	-0.1
4	124	-0.1
4	126	-0.1
4	128	-0.1
4	130	-0.1
4	132	-0.1
4	134	-0.1
4	136	-0.1
4	138	-0.1
4	140	-0.1
4	142	-0.1
4	144	-0.1
4	146	-0.1
4	148	-0.1
4	150	-0.1
4	152	-0.1
4	154	-0.1
4	156	-0.1
4	158	-0.1
4	160	-0.1
4	162	-0.1
4	164	-0.1
4	166	-0.1
4	168	-0.1
4	170	-0.1
4	172	-0.1
4	174	-0.1
4	176	-0.1
4	178	-0.1
4	180	-0.1
4	182	-0.1
4	184	-0.1
4	186	-0.1
6	0	-0.1
6	2	-0.1
6	4	-0.1
6	6	-0.1
6	8	-0.1
6	10	-0.1
6	12	-0.1
6	14	-0.1
6	16	-0.1
6	18	-0.1
6	20	-0.1
6	22	-0.1
6	24	-0.1
6	26	-0.1
6	28	-0.1
6	30	-0.1
6	32	-0.1
6	34	-0.1
6	36	-0.1
6	38	-0.1
6	40	-0.1
6	42	-0.1
6	44	-0.1
6	46	-0.1
6	48	-0.1
6	50	-0.1
6	52	-0.1
6	54	-0.1
6	56	-0.1
6	58	-0.1
6	60	-0.1
6	62	-0.1
6	64	-0.1
6	66	-0.1
6	68	-0.1
6	70	-0.1
6	72	-0.1
6	74	-0.1
6	76	-0.1
6	78	-0.1
6	80	-0.1
6	82	-0.1
6	84	-0.1
6	86	-0.1
6	88	-0.1
6	90	-0.1
6	92	-0.1
6	94	-0.1
6	96	-0.1
6	98	-0.1
6	100	-0.1
6	102	-0.1
6	104	-0.1
6	106	-0.1
6	108	-0.1
6	110	-0.1
6	112	-0.1
6	114	-0.1
6	116	-0.1
6	118	-0.1
6	120	-0.1
6	122	-0.1
6	124	-0.1
6	126	-0.1
6	128	-0.1
6	130	-0.1
6	132	-0.1
6	134	-0.1
6	136	-0.1
6	138	-0.1
6	140	-0.1
6	142	-0.1
6	144	-0.1
6	146	-0.1
6	148	-0.1
6	150	-0.1
6	152	-0.1
6	154	-0.1
6	156	-0.1
6	158	-0.1
6	160	-0.1
6	162	-0.1
6	164	-0.1
6	166	-0.1
6	168	-0.1
6	170	-0.1
6	172	-0.1
6	174	-0.1
6	176	-0.1
6	178	-0.1
6	180	-0.1
6	182	-0.1
6	184	-0.1
6	186	-0.1
8	0	-0.1
8	2	-0.1
8	4	-0.1
8	6	-0.1
8	8	-0.1
8	10	-0.1
8	12	-0.1
8	14	-0.1
8	16	-0.1
8	18	-0.1
8	20	-0.1
8	22	-0.1
8	24	-0.1
8	26	-0.1
8	28	-0.1
8	30	-0.1
8	32	-0.1
8	34	-0.1
8	36	-0.1
8	38	-0.1
8	40	-0.1
8	42	-0.1
8	44	-0.1
8	46	-0.1
8	48	-0.1
8	50	-0.1
8	52	-0.1
8	54	-0.1
8	56	-0.1
8	58	-0.1
8	60	-0.1
8	62	-0.1
8	64	-0.1
8	66	-0.1
8	68	-0.1
8	70	-0.1
8	72	-0.1
8	74	-0.1
8	76	-0.1
8	78	-0.1
8	80	-0.1
8	82	-0.1
8	84	-0.1
8	86	-0.1
8	88	-0.1
8	90	-0.1
8	92	-0.1
8	94	-0.1
8	96	-0.1
8	98	-0.1
8	100	-0.1
8	102	-0.1
8	104	-0.1
8	106	-0.1
8	108	-0.1
8	110	-0.1
8	112	-0.1
8	114	-0.1
8	116	-0.1
8	118	-0.1
8	120	-0.1
8	122	-0.1
8	124	-0.1
8	126	-0.1
8	128	-0.1
8	130	-0.1
8	132	-0.1
8	134	-0.1
8	136	-0.1
8	138	-0.1
8	140	-0.1
8	142	-0.1
8	144	-0.1
8	146	-0.1
8	148	-0.1
8	150	-0.1
8	152	-0.1
8	154	-0.1
8	156	-0.1
8	158	-0.1
8	160	-0.1
8	162	-0.1
8	164	-0.1
8	166	-0.1
8	168	-0.1
8	170	-0.1
8	172	-0.1
8	174	-0.1
8	176	-0.1
8	178	-0.1
8	180	-0.1
8	182	-0.1
8	184	-0.1
8	186	-0.1
10	0	-0.1
10	2	-0.1
10	4	-0.1
10	6	-0.1
10	8	-0.1
10	10	-0.1
10	12	-0.1
10	14	-0.1
10	16	-0.1
10	18	-0.1
10	20	-0.1
10	22	-0.1
10	24	-0.1
10	26	-0.1
10	28	-0.1
10	30	-0.1
10	32	-0.1
10	34	-0.1
10	36	-0.1
10	38	-0.1
10	40	-0.1
10	42	-0.1
10	44	-0.1
10	46	-0.1
10	48	-0.1
10	50	-0.1
10	52	-0.1
10	54	-0.1
10	56	-0.1
10	58	-0.1
10	60	-0.1
10	62	-0.1
10	64	-0.1
10	66	-0.1
10	68	-0.1
10	70	-0.1
10	72	-0.1
10	74	-0.1
10	76	-0.1
10	78	-0.1
10	80	-0.1
10	82	-0.1
10	84	-0.1
10	86	-0.1
10	88	-0.1
10	90	-0.1
10	92	-0.1
10	94	-0.1
10	96	-0.1
10	98	-0.1
10	100	-0.1
10	102	-0.1
10	104	-0.1
10	106	-0.1
10	108	-0.1
10	110	-0.1
10	112	-0.1
10	114	-0.1
10	116	-0.1
10	118	-0.1
10	120	-0.1
10	122	-0.1
10	124	-0.1
10	126	-0.1
10	128	-0.1
10	130	-0.1
10	132	-0.1
10	134	-0.1
10	136	-0.1
10	138	-0.1
10	140	-0.1
10	142	-0.1
10	144	-0.1
10	146	-0.1
10	148	-0.1
10	150	-0.1
10	152	-0.1
10	154	-0.1
10	156	-0.1
10	158	-0.1
10	160	-0.1
10	162	-0.1
10	164	-0.1
10	166	-0.1
10	168	-0.1
10	170	-0.1
10	172	-0.1
10	174	-0.1
10	176	-0.1
10	178	-0.1
10	180	-0.1
10	182	-0.1
10	184	-0.1
10	186	-0.1
12	0	-0.1
12	2	-0.1
12	4	-0.1
12	6	-0.1
12	8	-0.1
12	10	-0.1
12	12	-0.1
12	14	-0.1
12	16	-0.1
12	18	-0.1
12	20	-0.1
12	22	-0.1
12	24	-0.1
12	26	-0.1
12	28	-0.1
12	30	-0.1
12	32	-0.1
12	34	-0.1
12	36	-0.1
12	38	-0.1
12	40	-0.1
12	42	-0.1
12	44	-0.1
12	46	-0.1
12	48	-0.1
12	50	-0.1
12	52	-0.1
12	54	-0.1
12	56	-0.1
12	58	-0.1
12	60	-0.1
12	62	-0.1
12	64	-0.1
12	66	-0.1
12	68	-0.1
12	70	-0.1
12	72	-0.1
12	74	-0.1
12	76	-0.1
12	78	-0.1
12	80	-0.1
12	82	-0.1
12	84	-0.1
12	86	-0.1
12	88	-0.1
12	90	-0.1
12	92	-0.1
12	94	-0.1
12	96	-0.1
12	98	-0.1
12	100	-0.1
12	102	-0.1
12	104	-0.1
12	106	-0.1
12	108	-0.1
12	110	-0.1
12	112	-0.1
12	114	-0.1
12	116	-0.1
12	118	-0.1
12	120	-0.1
12	122	-0.1
12	124	-0.1
12	126	-0.1
12	128	-0.1
12	130	-0.1
12	132	-0.1
12	134	-0.1
12	136	-0.1
12	138	-0.1
12	140	-0.1
12	142	-0.1
12	144	-0.1
12	146	-0.1
12	148	-0.1
12	150	-0.1
12	152	-0.1
12	154	-0.1
12	156	-0.1
12	158	-0.1
12	160	-0.1
12	162	-0.1
12	164	-0.1
12	166	-0.1
12	168	-0.1
12	170	-0.1
12	172	-0.1
12	174	-0.1
12	176	-0.1
12	178	-0.1
12	180	-0.1
12	182	-0.1
12	184	-0.1
12	186	-0.1
14	0	-0.1
14	2	-0.1
14	4	-0.1
14	6	-0.1
14	8	-0.1
14	10	-0.1
14	12	-0.1
14	14	-0.1
14	16	-0.1
14	18	-0.1
14	20	-0.1
14	22	-0.1
14	24	-0.1
14	26	-0.1
14	28	-0.1
14	30	-0.1
14	32	-0.1
14	34	-0.1
14	36	-0.1
14	38	-0.1
14	40	-0.1
14	42	-0.1
14	44	-0.1
14	46	-0.1
14	48	-0.1
14	50	-0.1
14	52	-0.1
14	54	-0.1
14	56	-0.1
14	58	-0.1
14	60	-0.1
14	62	-0.1
14	64	-0.1
14	66	-0.1
14	68	-0.1
14	70	-0.1
14	72	-0.1
14	74	-0.1
14	76	-0.1
14	78	-0.1
14	80	-0.1
14	82	-0.1
14	84	-0.1
14	86	-0.1
14	88	-0.1
14	90	-0.1
14	92	-0.1
14	94	-0.1
14	96	-0.1
14	98	-0.1
14	100	-0.1
14	102	-0.1
14	104	-0.1
14	106	-0.1
14	108	-0.1
14	110	-0.1
14	112	-0.1
14	114	-0.1
14	116	-0.1
14	118	-0.1
14	120	-0.1
14	122	-0.1
14	124	-0.1
14	126	-0.1
14	128	-0.1
14	130	-0.1
14	132	-0.1
14	134	-0.1
14	136	-0.1
14	138	-0.1
14	140	-0.1
14	142	-0.1
14	144	-0.1
14	146	-0.1
14	148	-0.1
14	150	-0.1
14	152	-0.1
14	154	-0.1
14	156	-0.1
14	158	-0.1
14	160	-0.1
14	162	-0.1
14	164	-0.1
14	166	-0.1
14	168	-0.1
14	170	-0.1
14	172	-0.1
14	174	-0.1
14	176	-0.1
14	178	-0.1
14	180	-0.1
14	182	-0.1
14	184	-0.1
14	186	-0.1
16	0	-0.1
16	2	-0.1
16	4	-0.1
16	6	-0.1
16	8	-0.1
16	10	-0.1
16	12	-0.1
16	14	-0.1
16	16	-0.1
16	18	-0.1
16	20	-0.1
16	22	-0.1
16	24	-0.1
16	26	-0.1
16	28	-0.1
16	30	-0.1
16	32	-0.1
16	34	-0.1
16	36	-0.1
16	38	-0.1
16	40	-0.1
16	42	-0.1
16	44	-0.1
16	46	-0.1
16	48	-0.1
16	50	-0.1
16	52	-0.1
16	54	-0.1
16	56	-0.1
16	58	-0.1
16	60	-0.1
16	62	-0.1
16	64	-0.1
16	66	-0.1
16	68	-0.1
16	70	-0.1
16	72	-0.1
16	74	-0.1
16	76	-0.1
16	78	-0.1
16	80	-0.1
16	82	-0.1
16	84	-0.1
16	86	-0.1
16	88	-0.1
16	90	-0.1
16	92	-0.1
16	94	-0.1
16	96	-0.1
16	98	-0.1
16	100	-0.1
16	102	-0.1
16	104	-0.1
16	106	-0.1
16	108	-0.1
16	110	-0.1
16	112	-0.1
16	114	-0.1
16	116	-0.1
16	118	-0.1
16	120	-0.1
16	122	-0.1
16	124	-0.1
16	126	-0.1
16	128	-0.1
16	130	-0.1
16	132	-0.1
16	134	-0.1
16	136	-0.1
16	138	-0.1
16	140	-0.1
16	142	-0.1
16	144	-0.1
16	146	-0.1
16	148	-0.1
16	150	-0.1
16	152	-0.1
16	154	-0.1
16	156	-0.1
16	158	-0.1
16	160	-0.1
16	162	-0.1
16	164	-0.1
16	166	-0.1
16	168	-0.1
16	170	-0.1
16	172	-0.1
16	174	-0.1
16	176	-0.1
16	178	-0.1
16	180	-0.1
16	182	-0.1
16	184	-0.1
16	186	-0.1
18	0	-0.1
18	2	-0.1
18	4	-0.1
18	6	-0.1
18	8	-0.1
18	10	-0.1
18	12	-0.1
18	14	-0.1
18	16	-0.1
18	18	-0.1
18	20	-0.1
18	22	-0.1
18	24	-0.1
18	26	-0.1
18	28	-0.1
18	30	-0.1
18	32	-0.1
18	34	-0.1
18	36	-0.1
18	38	-0.1
18	40	-0.1
18	42	-0.1
18	44	-0.1
18	46	-0.1
18	48	-0.1
18	50	-0.1
18	52	-0.1
18	54	-0.1
18	56	-0.1
18	58	-0.1
18	60	-0.1
18	62	-0.1
18	64	-0.1
18	66	-0.1
18	68	-0.1
18	70	-0.1
18	72	-0.1
18	74	-0.1
18	76	-0.1
18	78	-0.1
18	80	-0.1
18	82	-0.1
18	84	-0.1
18	86	-0.1
18	88	-0.1
18	90	-0.1
18	92	-0.1
18	94	-0.1
18	96	-0.1
18	98	-0.1
18	100	-0.1
18	102	-0.1
18	104	-0.1
18	106	-0.1
18	108	-0.1
18	110	-0.1
18	112	-0.1
18	114	-0.1
18	116	-0.1
18	118	-0.1
18	120	-0.1
18	122	-0.1
18	124	-0.1
18	126	-0.1
[...]
CELL_DATA	11374
SCALARS g_z double 1
LOOKUP_TABLE table0
0.411587
0.445048
0.432875
0.428598
0.426979
0.425518
0.418021
0.416445
0.414969
0.407756
0.406376
0.404753
0.398102
0.394858
0.3872
0.379365
0.375066
0.369897
0.365635
0.360582
0.35613
0.347577
0.338472
0.329117
0.320057
0.310808
0.301954
0.292573
0.283609
0.274207
0.265324
0.25555
0.248018
0.245295
0.237386
0.22899
0.226723
0.221309
0.217487
0.209905
0.205008
0.200517
0.196966
0.189293
0.188404
0.187502
0.179992
0.179538
0.180059
0.180914
0.182195
0.183116
0.184329
0.186303
0.188985
0.196425
0.198637
0.201779
0.209593
0.211608
0.21356
0.22019
0.222683
0.223242
0.22287
0.223686
0.224715
0.224381
0.224189
0.225105
0.225009
0.224532
0.224308
0.225477
0.226676
0.226584
0.226134
0.22584
0.225794
0.226848
0.226544
0.226224
0.225893
0.225856
0.225471
0.225526
0.224764
0.226452
0.232404
0.233985
0.232455
0.23375
0.224971
0.258499
0.441183
0.480641
0.462251
0.461394
0.460859
0.459185
0.452028
0.451529
0.449119
0.442607
0.439005
0.433861
0.429357
0.424057
0.419735
0.412038
0.404135
0.399985
0.394873
0.391015
0.383454
0.373633
0.363552
0.353688
0.343916
0.334065
0.324004
0.313977
0.303806
0.293751
0.283714
0.273379
0.264997
0.263055
0.25421
0.245498
0.242958
0.236
0.232461
0.22532
0.217584
0.215788
0.213636
0.207468
0.206589
0.204416
0.197452
0.196091
0.196469
0.196325
0.195972
0.195464
0.194819
0.193574
0.194269
0.20086
0.202521
0.203332
0.210357
0.211208
0.212764
0.219263
0.21996
0.218978
0.218816
0.219599
0.219348
0.218911
0.218512
0.218157
0.217754
0.217578
0.216944
0.217863
0.222928
0.224055
0.223601
0.223469
0.222971
0.222636
0.222194
0.221964
0.221374
0.221219
0.220778
0.220845
0.220185
0.22041
0.221034
0.22315
0.222147
0.223602
0.211947
0.252492
0.433667
0.469207
0.449969
0.450487
0.447689
0.442727
0.440017
0.438137
0.432728
0.429448
0.422931
0.419255
0.413043
0.409591
0.403275
0.398877
0.391344
0.383896
0.379711
0.372168
0.362181
0.352245
0.342655
0.332914
0.321929
0.312032
0.302328
0.292721
0.28409
0.274505
0.264735
0.254531
0.246362
0.24439
0.235788
0.22719
0.225252
0.216754
0.209029
0.205509
0.198348
0.195864
0.189928
0.187489
0.185491
0.179879
0.178045
0.178127
0.176994
0.176772
0.176938
0.176925
0.177184
0.178543
0.178588
0.18059
0.185873
0.189454
0.195748
0.199527
0.205965
0.208473
0.209322
0.209039
0.209786
0.215138
0.216191
0.215833
0.215636
0.215466
0.215226
0.215031
0.214675
0.21478
0.215801
0.215753
0.215069
0.214792
0.214487
0.214399
0.213909
0.214033
0.214995
0.21519
0.21468
0.214711
0.214261
0.214176
0.214589
0.220528
0.220606
0.22181
0.209234
0.247623
0.43161
0.465478
0.450987
0.451625
0.443802
0.442254
0.44074
0.434542
0.431733
0.429738
0.423168
0.419742
0.41342
0.410234
0.402741
0.395148
0.390599
0.382012
0.373197
0.363722
0.353782
0.34428
0.334616
0.322403
0.306893
0.295994
0.286034
0.277826
0.274817
0.266416
0.256224
0.246041
0.237834
0.235864
0.227337
0.218354
0.215408
0.207654
0.199013
0.195572
0.18978
0.186065
0.179802
0.176378
0.171351
0.168978
0.168271
0.166911
0.161806
0.160714
0.161136
0.160838
0.162083
0.16709
0.168269
0.168915
0.171523
0.177976
0.181398
0.18915
0.1969
0.200197
0.205059
0.206093
0.207128
0.208324
0.208104
0.207811
0.207553
0.207372
0.207056
0.2068
0.206265
0.205831
0.205132
0.205097
0.206097
0.206206
0.205681
0.20556
0.205022
0.206268
0.211376
0.212642
0.211981
0.211966
0.211217
0.211223
0.210694
0.212574
0.211919
0.21486
0.202577
0.242142
0.425052
0.462571
0.450261
0.44968
0.441861
0.441756
0.438807
0.432768
0.430017
0.424416
0.420314
0.414389
0.410655
0.404493
0.399699
0.392566
0.383775
0.374286
0.363771
0.352781
0.342956
0.333569
0.321416
0.305864
0.293496
0.283837
0.273896
0.265609
0.262762
0.25572
0.245867
0.235562
0.227355
0.225379
0.217092
0.206696
0.199622
0.196609
0.187814
0.180145
0.176953
0.170866
0.167316
0.160878
0.158528
0.156448
0.151212
0.150262
0.149036
0.147481
0.147431
0.147309
0.147868
0.150288
0.151925
0.156731
0.160335
0.166553
0.170153
0.176598
0.181245
0.186975
0.190087
0.191191
0.196286
0.198408
0.1979
0.197526
0.197246
0.197084
0.196588
0.196455
0.19733
0.197445
0.196864
0.198019
0.203138
0.204297
0.203795
0.203712
0.203061
0.203016
0.203832
0.20404
0.203363
0.203659
0.204449
0.204912
0.203968
0.204159
0.204191
0.211308
0.199799
0.238079
0.423929
0.463842
0.448958
0.445139
0.441949
0.440476
0.434304
0.432781
0.429835
0.423522
0.419629
0.413673
0.410044
0.402711
0.394992
0.390832
0.381861
0.37201
0.361116
0.345819
0.333907
0.32301
0.306605
0.294365
0.285132
0.275556
0.265503
0.255445
0.248283
0.245278
0.236842
0.226278
0.218191
0.216142
0.207955
0.197294
0.18876
0.185938
0.178417
0.169651
0.166129
0.160342
0.156653
0.150577
0.147098
0.142062
0.139399
0.138556
0.137468
0.132515
0.131339
0.131401
0.132473
0.137442
0.138561
0.14179
0.147698
0.151991
0.157465
0.161634
0.166842
0.171049
0.176357
0.178356
0.180543
0.186209
0.188265
0.188052
0.187629
0.187264
0.186797
0.189128
0.19455
0.195555
0.194848
0.194958
0.195955
0.195953
0.195236
0.194874
0.194726
0.195843
0.195415
0.195174
0.194508
0.19591
0.200857
0.202296
0.201116
0.201642
0.200541
0.203874
0.192704
0.232425
0.423867
0.461532
0.442882
0.442523
0.43923
0.434372
0.431527
0.429756
0.42443
0.421202
0.414626
0.410977
0.404958
0.401431
0.392852
0.38377
0.374221
0.364616
0.354727
0.341294
0.326094
0.312605
0.295299
0.284118
0.273609
0.263837
0.255519
0.245113
0.236585
0.234689
0.226842
0.216067
0.207862
0.205903
0.197875
0.187527
0.177819
0.170303
0.166326
0.158908
0.151193
0.146891
0.141492
0.137326
0.131462
0.128453
0.127387
0.122641
0.12086
0.118505
0.118023
0.118187
0.118327
0.119747
0.122273
0.127787
0.132072
0.13752
0.141811
0.147174
0.151869
0.158216
0.161801
0.167925
0.16867
0.170677
0.177324
0.178447
0.177779
0.177529
0.17957
0.185259
0.187448
0.187317
0.18695
0.186519
0.185642
0.185439
0.186439
0.186334
0.187135
0.192544
0.193552
0.193292
0.192646
0.192732
0.193276
0.193996
0.19438
0.195245
0.193653
0.196514
0.188867
0.230146
0.421163
0.456599
0.441238
0.440933
0.434113
0.432948
0.431276
0.425091
0.422261
0.420138
0.413963
0.411551
0.404215
0.400719
0.393327
0.383153
0.373154
0.363455
0.351693
0.336511
0.322178
0.304184
0.28576
0.272583
0.257556
0.247559
0.243269
0.23569
0.228667
0.225574
0.216833
0.206552
0.199584
0.196691
0.188263
0.178133
0.168163
0.158239
0.15096
0.146619
0.138064
0.131495
0.127485
0.122
0.117666
0.112349
0.109922
0.1091
0.108008
0.103069
0.101833
0.102167
0.101745
0.102725
0.107784
0.111463
0.118051
0.12263
0.12793
0.131982
0.138651
0.147215
0.150853
0.157344
0.159107
0.160252
0.167696
0.169143
0.167959
0.169171
0.175656
0.178165
0.177471
0.177021
0.176258
0.176285
0.177058
0.17849
0.183481
0.184548
0.184222
0.185365
0.184916
0.184557
0.184285
0.185566
0.184817
0.186154
0.190846
0.192776
0.191023
0.19292
0.181343
0.224149
0.415632
0.45448
0.43902
0.43521
0.431885
0.433188
0.430025
0.423999
0.421234
0.415317
0.412593
0.410879
0.402838
0.395585
0.392333
0.383838
0.37384
0.362914
0.346077
0.33166
0.315577
0.295799
0.274525
0.256531
0.243421
0.23489
0.22914
0.227385
0.224092
0.216634
0.207968
0.199556
0.195324
0.18816
0.178519
0.168799
0.159089
0.149118
0.13938
0.130545
0.12185
0.117275
0.112145
0.10804
0.102546
0.097969
0.0926436
0.0917766
0.0906779
0.0893442
0.089373
0.0895532
0.0894035
0.0896375
0.0906379
0.0928226
0.10049
0.108473
0.11274
0.117924
0.122639
0.131472
0.138021
0.142019
0.147146
0.150537
0.156916
0.159245
0.158164
0.159516
0.167076
0.16849
0.167357
0.167351
0.167976
0.169386
0.174239
0.175642
0.176381
0.176416
0.175423
0.175244
0.176061
0.176057
0.176766
0.182393
0.183028
0.18321
0.183446
0.18441
0.184394
0.186126
0.173945
0.219565
0.413846
0.452923
0.433746
0.433522
0.432754
0.431457
0.425106
0.42362
0.420554
0.414501
0.411878
0.406339
0.402088
0.394884
0.391275
0.384173
0.37445
0.36318
0.344435
0.327896
0.313739
0.292573
0.266707
0.244071
0.227856
0.224736
0.224459
0.224083
0.21798
0.20948
0.204856
0.196828
0.188335
0.178589
0.167443
0.157611
0.147898
0.138145
0.128282
0.118143
0.108465
0.102426
0.0981568
0.0917495
0.0882363
0.0818476
0.0796554
0.0787757
0.0733199
0.0710427
0.0711723
0.0713863
0.0715161
0.0708992
0.071847
0.0784663
0.0832669
0.0909807
0.0989026
0.102864
0.109289
0.11783
0.122863
0.128973
0.132419
0.138369
0.142074
0.148185
0.149067
0.151065
0.15757
0.158589
0.15786
0.160092
0.165245
0.166507
0.167229
0.16718
0.166083
0.166012
0.166683
0.168197
0.173126
0.174276
0.173734
0.174958
0.174321
0.174617
0.174657
0.176806
0.180839
0.183691
0.170314
0.213147
0.410581
0.44762
0.431912
0.434153
0.430688
0.425791
0.422938
0.421218
0.415412
0.413794
0.411013
0.404612
0.401182
0.393707
0.386148
0.383052
0.374902
0.36328
0.345686
0.332433
0.314406
0.28874
0.263726
0.23658
0.216531
0.215939
0.218181
0.218931
0.215918
0.20753
0.199041
0.188485
0.178696
0.167663
0.151232
0.140065
0.130889
0.121205
0.111434
0.10147
0.0927069
0.0882306
0.0805579
0.0731682
0.069906
0.0634609
0.061344
0.0617656
0.0592879
0.0535376
0.0525054
0.052398
0.0513192
0.0521816
0.0537612
0.0614761
0.0693714
0.0735471
0.0813052
0.0888798
0.0937689
0.102013
0.109948
0.117807
0.12183
0.128604
0.13146
0.138108
0.140937
0.14693
0.149354
0.148375
0.1493
0.156021
0.158582
0.158159
0.157271
0.157007
0.157674
0.159067
0.163944
0.165372
0.166074
0.166081
0.165363
0.166469
0.165761
0.167198
0.17172
0.173636
0.173597
0.177022
0.16337
0.205991
0.405367
0.445849
0.431387
0.43213
0.425806
0.424136
0.421251
0.416042
0.413641
0.411675
0.406538
0.403137
0.39682
0.392821
0.385708
0.383125
0.375306
0.363547
0.347652
0.334193
0.315671
0.292809
0.267723
0.244214
0.223589
0.22584
0.228736
0.225821
0.217865
0.208409
0.196017
0.179374
0.168715
0.156725
0.140244
0.129034
0.118414
0.108485
0.0991472
0.0892911
0.0797205
0.0710344
0.0635876
0.0589286
0.0527036
0.0490965
0.0428206
0.0416996
0.0422352
0.0410048
0.0411256
0.0396748
0.0355531
0.039511
0.0406356
0.0426547
0.0519447
0.0598258
0.0640147
0.0712838
0.0801285
0.0885486
0.0934372
0.102048
0.111416
0.118267
0.121922
0.128688
0.13165
0.138697
0.13992
0.138886
0.141302
0.14784
0.148725
0.147833
0.147465
0.14974
0.155014
0.156249
0.156998
0.156902
0.155855
0.155583
0.157715
0.163522
0.164089
0.164088
0.164656
0.1664
0.166407
0.173497
0.161158
0.20262
0.403873
0.44403
0.425078
0.425587
0.422519
0.421897
0.416256
0.414214
0.411914
0.406296
0.402959
0.401708
0.395679
0.391848
0.386104
0.383763
0.375671
0.366207
0.353422
0.336603
0.317377
0.296963
0.277079
0.264061
0.255212
0.257532
0.255863
0.238651
0.219252
0.20599
0.188839
0.171384
0.157967
0.141753
0.12981
0.117911
0.102856
0.0917967
0.0809046
0.0708779
0.0607929
0.0521292
0.0493656
0.0417833
0.0334185
0.0306838
0.0234333
0.0218803
0.0224652
0.0226575
0.0230823
0.0228521
0.0217194
0.0226265
0.0226717
0.0244625
0.0323403
0.0425644
0.0500992
0.0543359
0.0633603
0.0733331
0.0819299
0.0915525
0.0991775
0.103154
0.111119
0.119374
0.121927
0.12899
0.129924
0.130395
0.137014
0.139405
0.138864
0.138475
0.140359
0.146058
0.148178
0.147936
0.146979
0.146806
0.147424
0.148782
0.153965
0.156487
0.15563
0.155576
0.157176
0.163317
0.163446
0.166075
0.152771
0.196663
0.401939
0.439109
0.423016
0.422469
0.416324
0.415742
0.413178
0.41233
0.406808
0.402164
0.396981
0.396123
0.392935
0.387315
0.385459
0.383141
0.377255
0.373013
0.359321
0.344478
0.325512
0.305102
0.287696
0.278256
0.279049
0.285001
0.275148
0.24716
0.220039
0.200046
0.18026
0.166011
0.149722
0.131181
0.117896
0.10262
0.0894869
0.0783778
0.0634208
0.0524015
0.0425366
0.0342926
0.0312481
0.0222651
0.0136898
0.0112248
0.0040013
0.00247526
0.00330006
0.00351648
0.00328018
0.00227403
0.00341327
0.00305379
0.00404301
0.010278
0.0139566
0.022743
0.0329765
0.0415829
0.0511201
0.0609201
0.0710887
0.0798289
0.08394
0.0911581
0.101595
0.109955
0.112421
0.119405
0.120516
0.122465
0.129049
0.130031
0.128793
0.129854
0.136453
0.139027
0.138307
0.137864
0.137396
0.139725
0.144771
0.146109
0.146342
0.146555
0.146716
0.148383
0.153177
0.156263
0.154963
0.157527
0.145103
0.193666
0.395727
0.437639
0.421311
0.417832
0.414278
0.412691
0.407026
0.406207
0.402723
0.396927
0.393576
0.392815
0.387282
0.384143
0.383285
0.378186
0.375525
0.375039
0.364456
0.346242
0.326096
0.308457
0.296308
0.288063
0.287201
0.286245
0.268518
0.241052
0.218225
0.195751
0.170351
0.151985
0.137797
0.11934
0.102799
0.088915
0.0736577
0.0616325
0.0506245
0.0407318
0.0309304
0.0211635
0.01254
0.00254517
-0.00604761
-0.00956762
-0.0155649
-0.016803
-0.0176594
-0.0176292
-0.0188994
-0.0232593
-0.0187809
-0.0164555
-0.0148278
-0.00762912
-0.00518122
0.00297033
0.0133878
0.023177
0.0333249
0.0443287
0.054395
0.0635961
0.0721743
0.0818207
0.0923444
0.100479
0.103005
0.109665
0.112356
0.118339
0.120649
0.120077
0.119554
0.121911
0.128404
0.129355
0.128637
0.128035
0.128839
0.135671
0.138084
0.137711
0.13689
0.139236
0.14418
0.145758
0.14574
0.146297
0.14725
0.154707
0.141954
0.186237
0.392458
0.435866
0.416148
0.414663
0.412564
0.407894
0.403741
0.403177
0.397568
0.39311
0.387493
0.385664
0.383457
0.378266
0.376229
0.373993
0.367851
0.365038
0.355681
0.337416
0.318286
0.306493
0.297117
0.286392
0.278086
0.26863
0.249653
0.228556
0.207757
0.182661
0.160028
0.140434
0.121752
0.103451
0.0886707
0.0726608
0.0589813
0.042918
0.0320667
0.0229374
0.0132169
0.00363261
-0.00633613
-0.0164746
-0.0267151
-0.0343338
-0.0361408
-0.0382583
-0.0435527
-0.0444828
-0.0445483
-0.0458509
-0.0435687
-0.0380996
-0.0345288
-0.0284284
-0.0249554
-0.0164541
-0.00621878
0.00346076
0.0157299
0.0309345
0.0420684
0.0528549
0.062999
0.07253
0.0828655
0.0908541
0.0933156
0.0998518
0.102914
0.110038
0.111457
0.110123
0.11108
0.117606
0.120012
0.119572
0.119023
0.118576
0.120919
0.127561
0.128366
0.127402
0.128217
0.135154
0.137386
0.137235
0.135943
0.138892
0.14339
0.147793
0.134822
0.178935
0.386378
0.429725
0.412058
0.408746
0.406381
0.403925
0.397539
0.395943
0.393527
0.388316
0.383497
0.378093
0.376194
0.373849
0.367808
0.365636
0.357161
0.347969
0.338667
0.326281
0.308866
0.298037
0.286354
0.271055
0.260213
0.24828
0.229517
0.209867
0.190016
0.169163
0.149412
0.129947
0.10986
0.0902412
0.071484
0.054412
0.0411227
0.0247639
0.0124047
0.0031453
-0.00668006
-0.0175933
-0.0277654
-0.0370918
-0.0461222
-0.0546603
-0.0580326
-0.0633488
-0.0669403
-0.0668313
-0.0664242
-0.0665377
-0.0666104
-0.0630774
-0.0571832
-0.0529131
-0.0452245
-0.0352702
-0.025865
-0.0146797
0.00194674
0.0144911
0.0263824
0.0417913
0.0537893
0.0633971
0.0733208
0.081703
0.0850323
0.0908583
0.0945103
0.100625
0.101597
0.100808
0.103218
0.109789
0.110628
0.109976
0.109326
0.110417
0.11679
0.119126
0.118346
0.117894
0.120124
0.12708
0.127509
0.127155
0.128709
0.13512
0.136041
0.140253
0.131576
0.17592
0.38475
0.426823
0.406811
0.405547
0.40341
0.398964
0.393429
0.388245
0.386075
0.383968
0.377489
0.37387
0.367964
0.3655
0.358295
0.35474
0.34757
0.337585
0.327865
0.315705
0.29934
0.286105
0.270698
0.257698
0.246933
0.229775
0.209757
0.18999
0.170423
0.151008
0.131361
0.111654
0.0920414
0.071889
0.0533229
0.0399398
0.0240396
0.0104564
-0.00557661
-0.0165934
-0.0284068
-0.0438143
-0.0550254
-0.0633566
-0.0679266
-0.0762601
-0.0830807
-0.0872175
-0.092793
-0.0948523
-0.0949411
-0.0947912
-0.0923805
-0.0869816
-0.0838828
-0.0760581
-0.0660385
-0.0557608
-0.0452706
-0.0336554
-0.0167745
-0.0043558
0.0115095
0.0264666
0.0418761
0.0539676
0.0636372
0.0736247
0.0808347
0.0841264
0.0902978
0.0926333
0.0916677
0.0926888
0.098981
0.101386
0.100779
0.100603
0.0996679
0.101215
0.108577
0.109876
0.108707
0.110984
0.116188
0.118316
0.117509
0.120018
0.12485
0.127833
0.128724
0.136264
0.12451
0.17013
0.383155
0.421976
0.402905
0.399464
0.396157
0.394901
0.388764
0.384573
0.378868
0.37577
0.36936
0.365553
0.358359
0.355754
0.347346
0.339574
0.33536
0.327028
0.315975
0.300845
0.286377
0.271068
0.256661
0.241905
0.228884
0.210329
0.190132
0.17052
0.150781
0.131039
0.111414
0.0917389
0.0720879
0.0518971
0.0339754
0.0215947
0.00515188
-0.00782083
-0.0244537
-0.0371833
-0.0534042
-0.0659778
-0.0755696
-0.0848555
-0.0935878
-0.102218
-0.106737
-0.111981
-0.116703
-0.122223
-0.123475
-0.121959
-0.116436
-0.113988
-0.112132
-0.104488
-0.0944851
-0.0819606
-0.0668211
-0.0530174
-0.0358314
-0.0221562
-0.00371369
0.013975
0.0270544
0.0434241
0.0544025
0.0644641
0.072519
0.0749777
0.0819571
0.0834094
0.0820205
0.0836805
0.0912387
0.0925836
0.0913243
0.0911145
0.0901842
0.0916248
0.0989146
0.100039
0.100432
0.107285
0.109263
0.108993
0.110424
0.116413
0.117874
0.120654
0.124783
0.128906
0.116834
0.167178
0.376868
0.418107
0.397815
0.395331
0.388547
0.387588
0.384485
0.378499
0.37432
0.368281
0.364864
0.357219
0.348547
0.346498
0.337845
0.327666
0.319013
0.309795
0.29982
0.286735
0.271107
0.257043
0.241864
0.227898
0.210292
0.190503
0.170713
0.151047
0.131452
0.111905
0.0921375
0.072297
0.0527241
0.0325138
0.0144881
0.00196761
-0.0144079
-0.0272029
-0.0439923
-0.0581239
-0.0739219
-0.0850565
-0.0955505
-0.105833
-0.115753
-0.125833
-0.133017
-0.136143
-0.142468
-0.144891
-0.144887
-0.144507
-0.143611
-0.142364
-0.136079
-0.131452
-0.121753
-0.105957
-0.0916514
-0.0751297
-0.0554624
-0.0354561
-0.0153427
0.00297129
0.0164517
0.0336587
0.0447302
0.0544336
0.0629921
0.0665864
0.0725497
0.0737503
0.0726563
0.0739434
0.0799941
0.0815258
0.0819528
0.0819504
0.0807683
0.0821542
0.0894901
0.0904905
0.0911616
0.0989751
0.0994763
0.100191
0.106548
0.109067
0.109124
0.116486
0.117794
0.121762
0.112885
0.160114
0.372758
0.413069
0.393894
0.390457
0.38457
0.3801
0.376006
0.370288
0.366257
0.360537
0.356727
0.347807
0.338844
0.336886
0.328455
0.31833
0.30853
0.298836
0.286805
0.271494
0.257226
0.242178
0.228028
0.210421
0.190483
0.170844
0.151183
0.131823
0.111939
0.0911762
0.0724226
0.0530137
0.0331971
0.0129179
-0.00522433
-0.0174187
-0.0341355
-0.0476581
-0.0649349
-0.0827227
-0.0945859
-0.106627
-0.121805
-0.132566
-0.142036
-0.152361
-0.160835
-0.16451
-0.171858
-0.173012
-0.172199
-0.172168
-0.172876
-0.171539
-0.163045
-0.154859
-0.144361
-0.131756
-0.115526
-0.101196
-0.0809019
-0.0542103
-0.0327882
-0.0125812
0.00635148
0.0247753
0.0369945
0.0463119
0.0549148
0.0624894
0.0645084
0.0641151
0.0635138
0.0634665
0.0640123
0.0650633
0.0701302
0.0723675
0.0714191
0.0727011
0.0800357
0.0809988
0.0816102
0.0892108
0.0900899
0.0922729
0.0984186
0.0996679
0.101045
0.108162
0.109191
0.117487
0.105591
0.152486
0.367962
0.409165
0.388847
0.386498
0.37983
0.376321
0.370045
0.365737
0.358837
0.355873
0.348399
0.337997
0.329609
0.32774
0.319655
0.309116
0.298248
0.28715
0.271799
0.257463
0.242242
0.22801
0.210625
0.192151
0.172251
0.151295
0.131631
0.112264
0.0896945
0.0659728
0.0517577
0.0337819
0.0135866
-0.0061357
-0.0233803
-0.0363202
-0.0550298
-0.0724397
-0.0859809
-0.102875
-0.115269
-0.131127
-0.143839
-0.15463
-0.164423
-0.174091
-0.183785
-0.192999
-0.201485
-0.202762
-0.203438
-0.203572
-0.203546
-0.20111
-0.194789
-0.188839
-0.174816
-0.160893
-0.142246
-0.123779
-0.102873
-0.0754236
-0.0518612
-0.0257759
-0.00347816
0.0162571
0.0339285
0.0436474
0.0480487
0.0543958
0.0551989
0.0545206
0.054185
0.0537679
0.0531446
0.0527507
0.0552009
0.0619758
0.0623546
0.0632279
0.0706248
0.071508
0.0722029
0.0795458
0.0818784
0.0881668
0.0897629
0.0909242
0.0965913
0.0996053
0.100773
0.109458
0.0984802
0.148826
0.363938
0.404441
0.385124
0.381776
0.375792
0.370116
0.366096
0.358954
0.350972
0.347966
0.338983
0.328471
0.319894
0.316762
0.308462
0.297093
0.281816
0.270963
0.25906
0.242406
0.228273
0.212019
0.193556
0.179363
0.159705
0.134131
0.111985
0.0914237
0.0655184
0.0439437
0.0320716
0.0145321
-0.00612406
-0.0244586
-0.0374593
-0.0543495
-0.074901
-0.0929529
-0.10522
-0.121896
-0.135888
-0.151778
-0.165151
-0.180182
-0.192438
-0.202174
-0.211872
-0.222241
-0.230797
-0.23331
-0.239363
-0.24103
-0.239575
-0.23403
-0.229527
-0.221793
-0.209714
-0.192805
-0.173007
-0.153148
-0.131063
-0.102329
-0.0720073
-0.0410373
-0.0134872
0.00890294
0.0274494
0.0374467
0.0444655
0.0464683
0.0459463
0.0456064
0.0452832
0.0450444
0.0445887
0.0436977
0.0443703
0.0509716
0.0527661
0.0540207
0.0613745
0.0621966
0.0627837
0.069998
0.0726926
0.07998
0.0806454
0.0828445
0.0887664
0.0929829