# vtk DataFile Version 3.0
Gravity effects
ASCII
DATASET UNSTRUCTURED_GRID

POINTS	11374	double
0	0	-0.1
0	2	-0.1
0	4	-0.1
0	6	-0.1
0	8	-0.1
0	10	-0.1
0	12	-0.1
0	14	-0.1
0	16	-0.1
0	18	-0.1
0	20	-0.1
0	22	-0.1
0	24	-0.1
0	26	-0.1
0	28	-0.1
0	30	-0.1
0	32	-0.1
0	34	-0.1
0	36	-0.1
0	38	-0.1
0	40	-0.1
0	42	-0.1
0	44	-0.1
0	46	-0.1
0	48	-0.1
0	50	-0.1
0	52	-0.1
0	54	-0.1
0	56	-0.1
0	58	-0.1
0	60	-0.1
0	62	-0.1
0	64	-0.1
0	66	-0.1
0	68	-0.1
0	70	-0.1
0	72	-0.1
0	74	-0.1
0	76	-0.1
0	78	-0.1
0	80	-0.1
0	82	-0.1
0	84	-0.1
0	86	-0.1
0	88	-0.1
0	90	-0.1
0	92	-0.1
0	94	-0.1
0	96	-0.1
0	98	-0.1
0	100	-0.1
0	102	-0.1
0	104	-0.1
0	106	-0.1
0	108	-0.1
0	110	-0.1
0	112	-0.1
0	114	-0.1
0	116	-0.1
0	118	-0.1
0	120	-0.1
0	122	-0.1
0	124	-0.1
0	126	-0.1
0	128	-0.1
0	130	-0.1
0	132	-0.1
0	134	-0.1
0	136	-0.1
0	138	-0.1
0	140	-0.1
0	142	-0.1
0	144	-0.1
0	146	-0.1
0	148	-0.1
0	150	-0.1
0	152	-0.1
0	154	-0.1
0	156	-0.1
0	158	-0.1
0	160	-0.1
0	162	-0.1
0	164	-0.1
0	166	-0.1
0	168	-0.1
0	170	-0.1
0	172	-0.1
0	174	-0.1
0	176	-0.1
0	178	-0.1
0	180	-0.1
0	182	-0.1
0	184	-0.1
0	186	-0.1
2	0	-0.1
2	2	-0.1
2	4	-0.1
2	6	-0.1
2	8	-0.1
2	10	-0.1
2	12	-0.1
2	14	-0.1
2	16	-0.1
2	18	-0.1
2	20	-0.1
2	22	-0.1
2	24	-0.1
2	26	-0.1
2	28	-0.1
2	30	-0.1
2	32	-0.1
2	34	-0.1
2	36	-0.1
2	38	-0.1
2	40	-0.1
2	42	-0.1
2	44	-0.1
2	46	-0.1
2	48	-0.1
2	50	-0.1
2	52	-0.1
2	54	-0.1
2	56	-0.1
2	58	-0.1
2	60	-0.1
2	62	-0.1
2	64	-0.1
2	66	-0.1
2	68	-0.1
2	70	-0.1
2	72	-0.1
2	74	-0.1
2	76	-0.1
2	78	-0.1
2	80	-0.1
2	82	-0.1
2	84	-0.1
2	86	-0.1
2	88	-0.1
2	90	-0.1
2	92	-0.1
2	94	-0.1
2	96	-0.1
2	98	-0.1
2	100	-0.1
2	102	-0.1
2	104	-0.1
2	106	-0.1
2	108	-0.1
2	110	-0.1
2	112	-0.1
2	114	-0.1
2	116	-0.1
2	118	-0.1
2	120	-0.1
2	122	-0.1
2	124	-0.1
2	126	-0.1
2	128	-0.1
2	130	-0.1
2	132	-0.1
2	134	-0.1
2	136	-0.1
2	138	-0.1
2	140	-0.1
2	142	-0.1
2	144	-0.1
2	146	-0.1
2	148	-0.1
2	150	-0.1
2	152	-0.1
2	154	-0.1
2	156	-0.1
2	158	-0.1
2	160	-0.1
2	162	-0.1
2	164	-0.1
2	166	-0.1
2	168	-0.1
2	170	-0.1
2	172	-0.1
2	174	-0.1
2	176	-0.1
2	178	-0.1
2	180	-0.1
2	182	-0.1
2	184	-0.1
2	186	-0.1
4	0	-0.1
4	2	-0.1
4	4	-0.1
4	6	-0.1
4	8	-0.1
4	10	-0.1
4	12	-0.1
4	14	-0.1
4	16	-0.1
4	18	-0.1
4	20	-0.1
4	22	-0.1
4	24	-0.1
4	26	-0.1
4	28	-0.1
4	30	-0.1
4	32	-0.1
4	34	-0.1
4	36	-0.1
4	38	-0.1
4	40	-0.1
4	42	-0.1
4	44	-0.1
4	46	-0.1
4	48	-0.1
4	50	-0.1
4	52	-0.1
4	54	-0.1
4	56	-0.1
4	58	-0.1
4	60	-0.1
4	62	-0.1
4	64	-0.1
4	66	-0.1
4	68	-0.1
4	70	-0.1
4	72	-0.1
4	74	-0.1
4	76	-0.1
4	78	-0.1
4	80	-0.1
4	82	-0.1
4	84	-0.1
4	86	-0.1
4	88	-0.1
4	90	-0.1
4	92	-0.1
4	94	-0.1
4	96	-0.1
4	98	-0.1
4	100	-0.1
4	102	-0.1
4	104	-0.1
4	106	-0.1
4	108	-0.1
4	110	-0.1
4	112	-0.1
4	114	-0.1
4	116	-0.1
4	118	-0.1
4	120	-0.1
4	122	-0.1
4	124	-0.1
4	126	-0.1
4	128	-0.1
4	130	-0.1
4	132	-0.1
4	134	-0.1
4	136	-0.1
4	138	-0.1
4	140	-0.1
4	142	-0.1
4	144	-0.1
4	146	-0.1
4	148	-0.1
4	150	-0.1
4	152	-0.1
4	154	-0.1
4	156	-0.1
4	158	-0.1
4	160	-0.1
4	162	-0.1
4	164	-0.1
4	166	-0.1
4	168	-0.1
4	170	-0.1
4	172	-0.1
4	174	-0.1
4	176	-0.1
4	178	-0.1
4	180	-0.1
4	182	-0.1
4	184	-0.1
4	186	-0.1
6	0	-0.1
6	2	-0.1
6	4	-0.1
6	6	-0.1
6	8	-0.1
6	10	-0.1
6	12	-0.1
6	14	-0.1
6	16	-0.1
6	18	-0.1
6	20	-0.1
6	22	-0.1
6	24	-0.1
6	26	-0.1
6	28	-0.1
6	30	-0.1
6	32	-0.1
6	34	-0.1
6	36	-0.1
6	38	-0.1
6	40	-0.1
6	42	-0.1
6	44	-0.1
6	46	-0.1
6	48	-0.1
6	50	-0.1
6	52	-0.1
6	54	-0.1
6	56	-0.1
6	58	-0.1
6	60	-0.1
6	62	-0.1
6	64	-0.1
6	66	-0.1
6	68	-0.1
6	70	-0.1
6	72	-0.1
6	74	-0.1
6	76	-0.1
6	78	-0.1
6	80	-0.1
6	82	-0.1
6	84	-0.1
6	86	-0.1
6	88	-0.1
6	90	-0.1
6	92	-0.1
6	94	-0.1
6	96	-0.1
6	98	-0.1
6	100	-0.1
6	102	-0.1
6	104	-0.1
6	106	-0.1
6	108	-0.1
6	110	-0.1
6	112	-0.1
6	114	-0.1
6	116	-0.1
6	118	-0.1
6	120	-0.1
6	122	-0.1
6	124	-0.1
6	126	-0.1
6	128	-0.1
6	130	-0.1
6	132	-0.1
6	134	-0.1
6	136	-0.1
6	138	-0.1
6	140	-0.1
6	142	-0.1
6	144	-0.1
6	146	-0.1
6	148	-0.1
6	150	-0.1
6	152	-0.1
6	154	-0.1
6	156	-0.1
6	158	-0.1
6	160	-0.1
6	162	-0.1
6	164	-0.1
6	166	-0.1
6	168	-0.1
6	170	-0.1
6	172	-0.1
6	174	-0.1
6	176	-0.1
6	178	-0.1
6	180	-0.1
6	182	-0.1
6	184	-0.1
6	186	-0.1
8	0	-0.1
8	2	-0.1
8	4	-0.1
8	6	-0.1
8	8	-0.1
8	10	-0.1
8	12	-0.1
8	14	-0.1
8	16	-0.1
8	18	-0.1
8	20	-0.1
8	22	-0.1
8	24	-0.1
8	26	-0.1
8	28	-0.1
8	30	-0.1
8	32	-0.1
8	34	-0.1
8	36	-0.1
8	38	-0.1
8	40	-0.1
8	42	-0.1
8	44	-0.1
8	46	-0.1
8	48	-0.1
8	50	-0.1
8	52	-0.1
8	54	-0.1
8	56	-0.1
8	58	-0.1
8	60	-0.1
8	62	-0.1
8	64	-0.1
8	66	-0.1
8	68	-0.1
8	70	-0.1
8	72	-0.1
8	74	-0.1
8	76	-0.1
8	78	-0.1
8	80	-0.1
8	82	-0.1
8	84	-0.1
8	86	-0.1
8	88	-0.1
8	90	-0.1
8	92	-0.1
8	94	-0.1
8	96	-0.1
8	98	-0.1
8	100	-0.1
8	102	-0.1
8	104	-0.1
8	106	-0.1
8	108	-0.1
8	110	-0.1
8	112	-0.1
8	114	-0.1
8	116	-0.1
8	118	-0.1
8	120	-0.1
8	122	-0.1
8	124	-0.1
8	126	-0.1
8	128	-0.1
8	130	-0.1
8	132	-0.1
8	134	-0.1
8	136	-0.1
8	138	-0.1
8	140	-0.1
8	142	-0.1
8	144	-0.1
8	146	-0.1
8	148	-0.1
8	150	-0.1
8	152	-0.1
8	154	-0.1
8	156	-0.1
8	158	-0.1
8	160	-0.1
8	162	-0.1
8	164	-0.1
8	166	-0.1
8	168	-0.1
8	170	-0.1
8	172	-0.1
8	174	-0.1
8	176	-0.1
8	178	-0.1
8	180	-0.1
8	182	-0.1
8	184	-0.1
8	186	-0.1
10	0	-0.1
10	2	-0.1
10	4	-0.1
10	6	-0.1
10	8	-0.1
10	10	-0.1
10	12	-0.1
10	14	-0.1
10	16	-0.1
10	18	-0.1
10	20	-0.1
10	22	-0.1
10	24	-0.1
10	26	-0.1
10	28	-0.1
10	30	-0.1
10	32	-0.1
10	34	-0.1
10	36	-0.1
10	38	-0.1
10	40	-0.1
10	42	-0.1
10	44	-0.1
10	46	-0.1
10	48	-0.1
10	50	-0.1
10	52	-0.1
10	54	-0.1
10	56	-0.1
10	58	-0.1
10	60	-0.1
10	62	-0.1
10	64	-0.1
10	66	-0.1
10	68	-0.1
10	70	-0.1
10	72	-0.1
10	74	-0.1
10	76	-0.1
10	78	-0.1
10	80	-0.1
10	82	-0.1
10	84	-0.1
10	86	-0.1
10	88	-0.1
10	90	-0.1
10	92	-0.1
10	94	-0.1
10	96	-0.1
10	98	-0.1
10	100	-0.1
10	102	-0.1
10	104	-0.1
10	106	-0.1
10	108	-0.1
10	110	-0.1
10	112	-0.1
10	114	-0.1
10	116	-0.1
10	118	-0.1
10	120	-0.1
10	122	-0.1
10	124	-0.1
10	126	-0.1
10	128	-0.1
10	130	-0.1
10	132	-0.1
10	134	-0.1
10	136	-0.1
10	138	-0.1
10	140	-0.1
10	142	-0.1
10	144	-0.1
10	146	-0.1
10	148	-0.1
10	150	-0.1
10	152	-0.1
10	154	-0.1
10	156	-0.1
10	158	-0.1
10	160	-0.1
10	162	-0.1
10	164	-0.1
10	166	-0.1
10	168	-0.1
10	170	-0.1
10	172	-0.1
10	174	-0.1
10	176	-0.1
10	178	-0.1
10	180	-0.1
10	182	-0.1
10	184	-0.1
10	186	-0.1
12	0	-0.1
12	2	-0.1
12	4	-0.1
12	6	-0.1
12	8	-0.1
12	10	-0.1
12	12	-0.1
12	14	-0.1
12	16	-0.1
12	18	-0.1
12	20	-0.1
12	22	-0.1
12	24	-0.1
12	26	-0.1
12	28	-0.1
12	30	-0.1
12	32	-0.1
12	34	-0.1
12	36	-0.1
12	38	-0.1
12	40	-0.1
12	42	-0.1
12	44	-0.1
12	46	-0.1
12	48	-0.1
12	50	-0.1
12	52	-0.1
12	54	-0.1
12	56	-0.1
12	58	-0.1
12	60	-0.1
12	62	-0.1
12	64	-0.1
12	66	-0.1
12	68	-0.1
12	70	-0.1
12	72	-0.1
12	74	-0.1
12	76	-0.1
12	78	-0.1
12	80	-0.1
12	82	-0.1
12	84	-0.1
12	86	-0.1
12	88	-0.1
12	90	-0.1
12	92	-0.1
12	94	-0.1
12	96	-0.1
12	98	-0.1
12	100	-0.1
12	102	-0.1
12	104	-0.1
12	106	-0.1
12	108	-0.1
12	110	-0.1
12	112	-0.1
12	114	-0.1
12	116	-0.1
12	118	-0.1
12	120	-0.1
12	122	-0.1
12	124	-0.1
12	126	-0.1
12	128	-0.1
12	130	-0.1
12	132	-0.1
12	134	-0.1
12	136	-0.1
12	138	-0.1
12	140	-0.1
12	142	-0.1
12	144	-0.1
12	146	-0.1
12	148	-0.1
12	150	-0.1
12	152	-0.1
12	154	-0.1
12	156	-0.1
12	158	-0.1
12	160	-0.1
12	162	-0.1
12	164	-0.1
12	166	-0.1
12	168	-0.1
12	170	-0.1
12	172	-0.1
12	174	-0.1
12	176	-0.1
12	178	-0.1
12	180	-0.1
12	182	-0.1
12	184	-0.1
12	186	-0.1
14	0	-0.1
14	2	-0.1
14	4	-0.1
14	6	-0.1
14	8	-0.1
14	10	-0.1
14	12	-0.1
14	14	-0.1
14	16	-0.1
14	18	-0.1
14	20	-0.1
14	22	-0.1
14	24	-0.1
14	26	-0.1
14	28	-0.1
14	30	-0.1
14	32	-0.1
14	34	-0.1
14	36	-0.1
14	38	-0.1
14	40	-0.1
14	42	-0.1
14	44	-0.1
14	46	-0.1
14	48	-0.1
14	50	-0.1
14	52	-0.1
14	54	-0.1
14	56	-0.1
14	58	-0.1
14	60	-0.1
14	62	-0.1
14	64	-0.1
14	66	-0.1
14	68	-0.1
14	70	-0.1
14	72	-0.1
14	74	-0.1
14	76	-0.1
14	78	-0.1
14	80	-0.1
14	82	-0.1
14	84	-0.1
14	86	-0.1
14	88	-0.1
14	90	-0.1
14	92	-0.1
14	94	-0.1
14	96	-0.1
14	98	-0.1
14	100	-0.1
14	102	-0.1
14	104	-0.1
14	106	-0.1
14	108	-0.1
14	110	-0.1
14	112	-0.1
14	114	-0.1
14	116	-0.1
14	118	-0.1
14	120	-0.1
14	122	-0.1
14	124	-0.1
14	126	-0.1
14	128	-0.1
14	130	-0.1
14	132	-0.1
14	134	-0.1
14	136	-0.1
14	138	-0.1
14	140	-0.1
14	142	-0.1
14	144	-0.1
14	146	-0.1
14	148	-0.1
14	150	-0.1
14	152	-0.1
14	154	-0.1
14	156	-0.1
14	158	-0.1
14	160	-0.1
14	162	-0.1
14	164	-0.1
14	166	-0.1
14	168	-0.1
14	170	-0.1
14	172	-0.1
14	174	-0.1
14	176	-0.1
14	178	-0.1
14	180	-0.1
14	182	-0.1
14	184	-0.1
14	186	-0.1
16	0	-0.1
16	2	-0.1
16	4	-0.1
16	6	-0.1
16	8	-0.1
16	10	-0.1
16	12	-0.1
16	14	-0.1
16	16	-0.1
16	18	-0.1
16	20	-0.1
16	22	-0.1
16	24	-0.1
16	26	-0.1
16	28	-0.1
16	30	-0.1
16	32	-0.1
16	34	-0.1
16	36	-0.1
16	38	-0.1
16	40	-0.1
16	42	-0.1
16	44	-0.1
16	46	-0.1
16	48	-0.1
16	50	-0.1
16	52	-0.1
16	54	-0.1
16	56	-0.1
16	58	-0.1
16	60	-0.1
16	62	-0.1
16	64	-0.1
16	66	-0.1
16	68	-0.1
16	70	-0.1
16	72	-0.1
16	74	-0.1
16	76	-0.1
16	78	-0.1
16	80	-0.1
16	82	-0.1
16	84	-0.1
16	86	-0.1
16	88	-0.1
16	90	-0.1
16	92	-0.1
16	94	-0.1
16	96	-0.1
16	98	-0.1
16	100	-0.1
16	102	-0.1
16	104	-0.1
16	106	-0.1
16	108	-0.1
16	110	-0.1
16	112	-0.1
16	114	-0.1
16	116	-0.1
16	118	-0.1
16	120	-0.1
16	122	-0.1
16	124	-0.1
16	126	-0.1
16	128	-0.1
16	130	-0.1
16	132	-0.1
16	134	-0.1
16	136	-0.1
16	138	-0.1
16	140	-0.1
16	142	-0.1
16	144	-0.1
16	146	-0.1
16	148	-0.1
16	150	-0.1
16	152	-0.1
16	154	-0.1
16	156	-0.1
16	158	-0.1
16	160	-0.1
16	162	-0.1
16	164	-0.1
16	166	-0.1
16	168	-0.1
16	170	-0.1
16	172	-0.1
16	174	-0.1
16	176	-0.1
16	178	-0.1
16	180	-0.1
16	182	-0.1
16	184	-0.1
16	186	-0.1
18	0	-0.1
18	2	-0.1
18	4	-0.1
18	6	-0.1
18	8	-0.1
18	10	-0.1
18	12	-0.1
18	14	-0.1
18	16	-0.1
18	18	-0.1
18	20	-0.1
18	22	-0.1
18	24	-0.1
18	26	-0.1
18	28	-0.1
18	30	-0.1
18	32	-0.1
18	34	-0.1
18	36	-0.1
18	38	-0.1
18	40	-0.1
18	42	-0.1
18	44	-0.1
18	46	-0.1
18	48	-0.1
18	50	-0.1
18	52	-0.1
18	54	-0.1
18	56	-0.1
18	58	-0.1
18	60	-0.1
18	62	-0.1
18	64	-0.1
18	66	-0.1
18	68	-0.1
18	70	-0.1
18	72	-0.1
18	74	-0.1
18	76	-0.1
18	78	-0.1
18	80	-0.1
18	82	-0.1
18	84	-0.1
18	86	-0.1
18	88	-0.1
18	90	-0.1
18	92	-0.1
18	94	-0.1
18	96	-0.1
18	98	-0.1
18	100	-0.1
18	102	-0.1
18	104	-0.1
18	106	-0.1
18	108	-0.1
18	110	-0.1
18	112	-0.1
18	114	-0.1
18	116	-0.1
18	118	-0.1
18	120	-0.1
18	122	-0.1
18	124	-0.1
18	126	-0.1
[...]
CELL_DATA	11374
SCALARS g_z double 1
LOOKUP_TABLE table0
0.437518
0.440644
0.441796
0.441686
0.440348
0.437278
0.434353
0.431336
0.428012
0.424318
0.42024
0.415863
0.411209
0.406375
0.401798
0.396696
0.390681
0.384169
0.377414
0.370931
0.363453
0.3553
0.346646
0.337371
0.327484
0.318415
0.309619
0.300876
0.291647
0.282898
0.274878
0.267241
0.259854
0.252569
0.245744
0.239291
0.233179
0.227432
0.222046
0.216885
0.212014
0.207443
0.203066
0.199251
0.196078
0.193485
0.191416
0.189716
0.188828
0.188671
0.188986
0.189785
0.191134
0.192967
0.195371
0.198421
0.202572
0.206472
0.210013
0.213387
0.216627
0.219763
0.222359
0.224408
0.225763
0.225879
0.225226
0.225496
0.225825
0.225925
0.225244
0.225
0.225114
0.225363
0.225686
0.226072
0.226353
0.226546
0.226621
0.226429
0.226159
0.226171
0.226268
0.22639
0.226439
0.226651
0.227007
0.227484
0.228074
0.228796
0.230082
0.232038
0.235087
0.241114
0.440657
0.444833
0.446253
0.446195
0.444749
0.441239
0.438062
0.434866
0.431368
0.427482
0.423183
0.418565
0.413641
0.408516
0.403709
0.398295
0.391814
0.384732
0.377265
0.369706
0.361423
0.352585
0.343283
0.333285
0.322519
0.313048
0.304058
0.29533
0.286692
0.278367
0.27045
0.262849
0.255531
0.248559
0.24176
0.235224
0.228998
0.223181
0.217804
0.212512
0.207504
0.202855
0.198718
0.19498
0.191701
0.188949
0.186706
0.184865
0.183791
0.183348
0.183426
0.183821
0.184565
0.186323
0.18877
0.191889
0.195938
0.199911
0.203666
0.207304
0.210832
0.214264
0.21714
0.219427
0.220928
0.220868
0.21983
0.220123
0.220506
0.220561
0.219316
0.218852
0.218963
0.219252
0.219602
0.219941
0.22026
0.220509
0.220633
0.220428
0.220127
0.220179
0.22032
0.220461
0.22042
0.220602
0.220939
0.221335
0.221596
0.221435
0.222641
0.224837
0.228492
0.23637
0.441965
0.446436
0.448012
0.447992
0.44649
0.442855
0.439536
0.436201
0.432556
0.428507
0.424019
0.419179
0.413995
0.408568
0.403416
0.397589
0.390606
0.382924
0.374752
0.366403
0.35733
0.347748
0.337765
0.327158
0.315897
0.306106
0.296968
0.288249
0.279748
0.271576
0.263743
0.256172
0.248859
0.241874
0.235005
0.228336
0.221941
0.215941
0.210373
0.204881
0.199682
0.194877
0.190627
0.186774
0.183342
0.180413
0.17798
0.175951
0.174696
0.174082
0.174003
0.174244
0.17487
0.176609
0.179118
0.182347
0.186538
0.190704
0.194711
0.198641
0.202485
0.206243
0.20944
0.212026
0.213775
0.213889
0.212988
0.213437
0.213969
0.214124
0.212914
0.212487
0.212669
0.213039
0.21346
0.213861
0.214247
0.214568
0.214763
0.214622
0.214381
0.2145
0.214704
0.214896
0.214886
0.215089
0.21543
0.215794
0.215961
0.215703
0.216947
0.219363
0.223451
0.232
0.442194
0.446779
0.448426
0.448424
0.446894
0.443195
0.43979
0.436356
0.432602
0.42843
0.423793
0.418763
0.413338
0.407611
0.402093
0.395825
0.38831
0.37999
0.371062
0.361862
0.351902
0.341463
0.33072
0.319505
0.307813
0.297779
0.288571
0.279923
0.271577
0.263562
0.255822
0.248277
0.24094
0.233886
0.226891
0.220033
0.213398
0.207124
0.201269
0.195499
0.190048
0.185024
0.180586
0.176555
0.172939
0.169817
0.167192
0.164978
0.163553
0.162787
0.162572
0.162696
0.163249
0.164986
0.16757
0.170943
0.175337
0.179756
0.184053
0.188304
0.192492
0.196607
0.200168
0.203116
0.205216
0.205658
0.205063
0.205794
0.206584
0.206967
0.205956
0.205702
0.206032
0.206525
0.207045
0.207529
0.207996
0.208404
0.208693
0.208648
0.208504
0.208715
0.209005
0.209275
0.209331
0.209585
0.209957
0.210328
0.210484
0.210234
0.211562
0.214173
0.218582
0.227558
0.44143
0.446038
0.447703
0.447705
0.44616
0.44243
0.438978
0.435485
0.431667
0.427432
0.422715
0.417547
0.411913
0.4059
0.400002
0.39327
0.385203
0.376196
0.366396
0.356139
0.345067
0.333525
0.321835
0.309963
0.29789
0.287711
0.278577
0.270157
0.262145
0.254422
0.246829
0.239315
0.231958
0.224853
0.217713
0.210612
0.203652
0.196986
0.190717
0.184579
0.178816
0.173537
0.168904
0.164692
0.160881
0.15756
0.154741
0.152347
0.150759
0.149843
0.149475
0.149428
0.149843
0.151551
0.154214
0.157765
0.162426
0.167157
0.171784
0.176383
0.18093
0.185416
0.189376
0.192748
0.195293
0.196206
0.196071
0.197205
0.198356
0.199089
0.198428
0.198471
0.199021
0.199671
0.200293
0.200845
0.201388
0.201893
0.202296
0.202385
0.202377
0.202707
0.203105
0.203479
0.203635
0.20397
0.204395
0.204787
0.204939
0.204691
0.206093
0.208878
0.213571
0.222937
0.439276
0.443767
0.445415
0.445413
0.443868
0.440166
0.436705
0.433187
0.429352
0.425169
0.420641
0.415413
0.409617
0.403339
0.396938
0.389648
0.381028
0.371304
0.360446
0.348211
0.335629
0.322093
0.308866
0.296326
0.284121
0.273948
0.265348
0.257407
0.250449
0.243454
0.236059
0.228562
0.221223
0.214524
0.207287
0.199879
0.192498
0.185205
0.178087
0.171472
0.165341
0.159799
0.155212
0.150935
0.146933
0.143409
0.140397
0.13782
0.136075
0.135008
0.134454
0.13399
0.133788
0.135407
0.138147
0.141917
0.147125
0.152302
0.157296
0.162263
0.167161
0.171894
0.176265
0.180112
0.183195
0.184854
0.185578
0.187232
0.188834
0.190044
0.190214
0.190766
0.191601
0.192432
0.193112
0.193501
0.194089
0.194694
0.195233
0.19556
0.19582
0.196298
0.196823
0.19733
0.1977
0.198162
0.198656
0.199074
0.199151
0.198629
0.200061
0.203007
0.207993
0.218009
0.436612
0.440971
0.442592
0.442585
0.441048
0.43739
0.433941
0.430424
0.426603
0.422509
0.418214
0.412977
0.407078
0.400601
0.393768
0.385992
0.376881
0.366485
0.354582
0.340352
0.326239
0.310691
0.295916
0.282712
0.270392
0.260264
0.25225
0.244822
0.238924
0.232624
0.225351
0.217765
0.210327
0.203914
0.196467
0.188656
0.180772
0.172784
0.164759
0.157617
0.151076
0.145233
0.140658
0.136292
0.132085
0.128355
0.125157
0.122411
0.120525
0.119323
0.118597
0.117727
0.116917
0.11845
0.12127
0.125258
0.131012
0.136638
0.142009
0.147363
0.152638
0.157649
0.16247
0.166838
0.170506
0.172964
0.174601
0.176824
0.178921
0.180651
0.181689
0.182781
0.183924
0.184955
0.18571
0.18595
0.18659
0.187303
0.187983
0.188553
0.189085
0.189717
0.190375
0.191024
0.191618
0.192219
0.192794
0.193247
0.19326
0.192472
0.193934
0.197032
0.202295
0.212941
0.434291
0.438621
0.44023
0.440223
0.438695
0.435053
0.43162
0.428123
0.424334
0.420291
0.41605
0.41083
0.404901
0.398342
0.391353
0.383338
0.373874
0.362934
0.350175
0.33473
0.319394
0.302624
0.286825
0.272951
0.260257
0.250132
0.242487
0.235439
0.22997
0.223919
0.21655
0.208663
0.200832
0.19399
0.186052
0.1777
0.169247
0.160666
0.152059
0.144403
0.137419
0.131204
0.126331
0.121707
0.11726
0.113323
0.109959
0.107081
0.105089
0.103789
0.102955
0.101952
0.101032
0.102553
0.105454
0.109614
0.115627
0.121571
0.1273
0.133056
0.138769
0.144252
0.14959
0.154519
0.158786
0.161878
0.164138
0.166919
0.169519
0.171724
0.173222
0.174705
0.176145
0.177393
0.178298
0.178644
0.17939
0.18022
0.18103
0.181746
0.182427
0.183195
0.183984
0.184764
0.185491
0.186209
0.186872
0.187385
0.187427
0.186665
0.188205
0.191453
0.196946
0.207907
0.43183
0.436158
0.437772
0.437775
0.436262
0.432644
0.42924
0.425779
0.422043
0.418072
0.413913
0.408767
0.402904
0.396407
0.389464
0.381425
0.371802
0.360499
0.347028
0.329773
0.313363
0.295192
0.278348
0.263846
0.250452
0.240349
0.233984
0.227242
0.222552
0.216744
0.208984
0.200502
0.191954
0.184336
0.175638
0.166583
0.157488
0.148317
0.139165
0.131003
0.123551
0.116909
0.111656
0.106704
0.10199
0.097855
0.0943656
0.0914188
0.0893779
0.0880309
0.0871493
0.0861041
0.0851686
0.0867201
0.0897002
0.0939798
0.100161
0.106345
0.112405
0.118575
0.12477
0.130785
0.136695
0.142225
0.147114
0.150835
0.153703
0.157041
0.16014
0.162793
0.164689
0.166512
0.16823
0.169704
0.170792
0.171292
0.172173
0.173126
0.174054
0.174886
0.175684
0.176572
0.177486
0.178396
0.179253
0.18009
0.180853
0.181445
0.181553
0.180862
0.182504
0.185902
0.191601
0.202818
0.429099
0.43346
0.435095
0.435117
0.433633
0.430054
0.426696
0.423291
0.419639
0.415803
0.411812
0.406827
0.40114
0.394898
0.388326
0.380603
0.371073
0.359635
0.345738
0.327744
0.310707
0.292024
0.27479
0.260033
0.246437
0.236233
0.229861
0.222876
0.217801
0.211419
0.20286
0.193423
0.183723
0.174807
0.164981
0.155041
0.145238
0.135505
0.125872
0.117226
0.109289
0.102169
0.0964479
0.0910941
0.0860866
0.0817783
0.0782605
0.0754028
0.0734267
0.072094
0.0712081
0.0701597
0.0692408
0.0708412
0.0738849
0.0782041
0.0843904
0.0906851
0.0970356
0.103635
0.110359
0.11697
0.123511
0.129692
0.135252
0.139657
0.14318
0.147098
0.150699
0.153783
0.156043
0.158174
0.160153
0.161853
0.163147
0.163837
0.164873
0.165951
0.166982
0.167902
0.168788
0.16978
0.170816
0.171867
0.172877
0.173854
0.174731
0.175414
0.175593
0.174974
0.176723
0.180275
0.186182
0.197662
0.425918
0.430437
0.432112
0.432158
0.430715
0.427268
0.423983
0.420645
0.417105
0.413543
0.410126
0.405402
0.399987
0.394225
0.389242
0.382829
0.373683
0.362343
0.348177
0.328678
0.311215
0.292646
0.275574
0.261041
0.247899
0.237543
0.230966
0.223239
0.217101
0.209525
0.199737
0.188979
0.177491
0.164948
0.153358
0.142364
0.131821
0.12173
0.112135
0.103066
0.094634
0.0869721
0.0804178
0.0744638
0.0691278
0.06467
0.0613298
0.0595265
0.0578352
0.0565724
0.0557093
0.0546445
0.0536857
0.0553467
0.0584466
0.0626855
0.0679278
0.0739263
0.0805318
0.0875962
0.094924
0.102286
0.109537
0.116432
0.122729
0.128001
0.132439
0.136977
0.141082
0.144576
0.14713
0.149524
0.151739
0.153654
0.155195
0.156272
0.157492
0.15869
0.159807
0.160729
0.161598
0.162679
0.163839
0.165054
0.166366
0.167539
0.168547
0.169328
0.169551
0.168875
0.170719
0.174435
0.180571
0.192441
0.422515
0.427187
0.428894
0.428955
0.427541
0.424213
0.420988
0.417704
0.414266
0.410971
0.408124
0.403666
0.398537
0.393285
0.389942
0.384923
0.376298
0.36528
0.351196
0.330658
0.31324
0.295212
0.278644
0.264553
0.251929
0.241261
0.234102
0.225108
0.217286
0.207958
0.196566
0.18426
0.170849
0.154599
0.141195
0.129119
0.117818
0.107359
0.0977958
0.0882963
0.0793602
0.0711438
0.063739
0.0571651
0.0514781
0.0468464
0.0436594
0.0428897
0.0414703
0.0402764
0.0394485
0.0383923
0.0374272
0.0391874
0.042385
0.046588
0.0509358
0.0566945
0.0636198
0.0712218
0.0792325
0.0874264
0.0954635
0.10314
0.110231
0.116408
0.121785
0.126949
0.131548
0.135429
0.138244
0.140866
0.14328
0.145376
0.147137
0.148577
0.149963
0.151269
0.152461
0.15338
0.154229
0.155398
0.156683
0.158067
0.159686
0.161063
0.162214
0.163105
0.163386
0.162669
0.164624
0.168516
0.174894
0.187166
0.419129
0.42382
0.425527
0.425578
0.424155
0.420826
0.417605
0.414337
0.410947
0.407758
0.405066
0.400776
0.395863
0.390947
0.388116
0.383645
0.375498
0.364992
0.351606
0.332069
0.315594
0.298564
0.28282
0.269271
0.256864
0.245588
0.237005
0.22603
0.215478
0.203539
0.190215
0.17631
0.16137
0.143593
0.128923
0.115879
0.103823
0.0927749
0.0827127
0.0727097
0.0632595
0.054523
0.0465967
0.0395574
0.0335057
0.028622
0.025326
0.0245742
0.0231744
0.0219898
0.0211986
0.0202215
0.0193826
0.0213129
0.0246995
0.0290741
0.0335723
0.039608
0.0470185
0.0552719
0.0640535
0.0730914
0.0819954
0.0905318
0.0984592
0.105439
0.11154
0.117301
0.122368
0.126604
0.129677
0.132489
0.135051
0.137274
0.13916
0.140726
0.142216
0.143608
0.144876
0.145865
0.146793
0.148066
0.149479
0.151015
0.152806
0.154348
0.155645
0.156666
0.157064
0.156465
0.158573
0.162661
0.169286
0.181853
0.415618
0.420293
0.421972
0.421982
0.420509
0.417126
0.413855
0.410549
0.407141
0.403959
0.401301
0.397077
0.392274
0.387529
0.384942
0.38078
0.37303
0.363109
0.350812
0.334539
0.319655
0.304917
0.290744
0.278078
0.267095
0.254979
0.243529
0.229999
0.213591
0.19738
0.181989
0.166563
0.150354
0.131467
0.115832
0.101964
0.0891993
0.0775306
0.0669037
0.0563647
0.0463949
0.0371533
0.0287427
0.0212549
0.0148037
0.00957401
0.00598924
0.00501257
0.00346267
0.00221473
0.00145727
0.000611146
-2.08131e-05
0.0021642
0.00584192
0.0105479
0.0154419
0.0219856
0.0300486
0.0390937
0.0487754
0.0587784
0.0686661
0.0781639
0.0869991
0.0948067
0.101622
0.107957
0.113453
0.117986
0.121253
0.124185
0.126826
0.129109
0.131052
0.132677
0.13423
0.135688
0.137032
0.138112
0.139146
0.14054
0.142088
0.143776
0.145727
0.147431
0.148883
0.150052
0.150596
0.150154
0.152445
0.156755
0.163646
0.176521
0.41196
0.416612
0.418244
0.418181
0.416608
0.413104
0.409718
0.406311
0.402811
0.399539
0.396801
0.392534
0.387725
0.383001
0.380456
0.376413
0.368928
0.359493
0.348056
0.333103
0.319392
0.305717
0.29228
0.279888
0.268743
0.25565
0.242452
0.22677
0.207632
0.188916
0.171769
0.155035
0.137814
0.118116
0.101754
0.0872026
0.0737991
0.0615283
0.0503292
0.0392469
0.0287544
0.0190064
0.0101066
0.00214975
-0.00475276
-0.0104316
-0.0144952
-0.0159519
-0.0178318
-0.0192202
-0.0199345
-0.0205436
-0.0208214
-0.0182748
-0.0142136
-0.00906671
-0.00364368
0.00355403
0.0124184
0.0224051
0.0331292
0.0442255
0.0552359
0.0658321
0.0756856
0.0844014
0.0919743
0.0988679
0.10473
0.109481
0.112856
0.115821
0.118459
0.120732
0.122677
0.12432
0.125904
0.127413
0.128839
0.130039
0.131214
0.13275
0.134447
0.136297
0.138423
0.140303
0.141924
0.143256
0.143963
0.143694
0.146188
0.150747
0.157946
0.171198
0.408178
0.412881
0.414454
0.414287
0.412551
0.408712
0.40511
0.401538
0.39787
0.394372
0.391289
0.386857
0.381926
0.377066
0.37415
0.369865
0.36246
0.353308
0.342435
0.328598
0.315671
0.302837
0.28983
0.277163
0.265086
0.250842
0.235743
0.218348
0.197598
0.177369
0.158936
0.141195
0.12329
0.103542
0.0867394
0.0716395
0.0576714
0.0448078
0.0329785
0.0213495
0.01033
6.48585e-05
-0.00934367
-0.0178023
-0.0252101
-0.0314396
-0.0362743
-0.0392967
-0.0417928
-0.0434026
-0.0440546
-0.0440515
-0.0432203
-0.0401846
-0.0356711
-0.0300118
-0.0240234
-0.0160784
-0.00627858
0.00479777
0.0166568
0.0286221
0.0408745
0.0528211
0.0638638
0.073679
0.0822188
0.0896505
0.0956586
0.100536
0.104027
0.106962
0.109512
0.111706
0.113609
0.115285
0.116882
0.11843
0.119948
0.121381
0.122846
0.124552
0.126413
0.128444
0.130832
0.132923
0.13473
0.136242
0.13711
0.136967
0.139676
0.144508
0.152071
0.165991
0.404216
0.408952
0.410443
0.410144
0.408212
0.403999
0.400136
0.396344
0.392446
0.38865
0.38514
0.380452
0.375296
0.370188
0.366772
0.362099
0.354595
0.345485
0.334827
0.321663
0.309077
0.296679
0.283743
0.270499
0.257289
0.241878
0.225083
0.206405
0.184668
0.163543
0.144267
0.12582
0.10745
0.0878235
0.0707145
0.0551667
0.0407034
0.0272898
0.0148522
0.00268187
-0.00887185
-0.0196723
-0.0296169
-0.0386128
-0.0465691
-0.0533986
-0.0590588
-0.0637039
-0.0668732
-0.0687587
-0.0693972
-0.0688216
-0.066907
-0.0633874
-0.0584013
-0.0521805
-0.0455489
-0.0367526
-0.0258893
-0.0135726
-0.000407906
0.0126075
0.0262773
0.0397277
0.0520863
0.0630941
0.072658
0.0806563
0.0868093
0.0917777
0.0953237
0.0981552
0.100539
0.102582
0.104384
0.10605
0.107631
0.109204
0.110809
0.112476
0.114239
0.116124
0.118156
0.12038
0.123038
0.125354
0.127363
0.129073
0.130125
0.130128
0.133068
0.138185
0.146118
0.160715
0.400023
0.404683
0.406061
0.405607
0.403476
0.399022
0.394905
0.390851
0.386673
0.382565
0.378727
0.37372
0.368252
0.362819
0.359056
0.354064
0.346307
0.336987
0.326099
0.312608
0.299751
0.287067
0.273669
0.259645
0.245395
0.228919
0.211074
0.191632
0.169629
0.148292
0.1286
0.109714
0.0909801
0.0710657
0.0536439
0.0377187
0.0228218
0.00892679
-0.00402652
-0.0167302
-0.028832
-0.0401935
-0.0507082
-0.0602791
-0.0688161
-0.0762461
-0.0825537
-0.0878571
-0.091534
-0.0937281
-0.0944755
-0.0937884
-0.0916027
-0.0877421
-0.0823127
-0.0755004
-0.0680999
-0.0583319
-0.0462816
-0.0325718
-0.0178545
-0.0032047
0.0121073
0.0270619
0.040788
0.0529596
0.063421
0.0720796
0.0786563
0.0837569
0.0872725
0.0899344
0.0920772
0.0938915
0.0955182
0.0970732
0.0986034
0.100185
0.10186
0.103659
0.105587
0.107642
0.109851
0.112265
0.11513
0.117659
0.119887
0.121821
0.123104
0.123342
0.126532
0.131924
0.140178
0.155165
0.395644
0.400203
0.401447
0.400816
0.398464
0.393753
0.389351
0.38499
0.380474
0.375991
0.371753
0.366342
0.360466
0.354607
0.350399
0.34497
0.336805
0.327073
0.31562
0.300596
0.287
0.273646
0.259475
0.24435
0.228415
0.210891
0.191927
0.172073
0.151657
0.131239
0.111469
0.0923739
0.0734423
0.0533516
0.0357127
0.0194875
0.00420689
-0.0101427
-0.0236036
-0.0368516
-0.049526
-0.0614837
-0.0726106
-0.0827995
-0.091952
-0.0999895
-0.106889
-0.112745
-0.116893
-0.119449
-0.120434
-0.119848
-0.117619
-0.113556
-0.107742
-0.100334
-0.0921078
-0.0812796
-0.0679329
-0.0526872
-0.0362213
-0.0197252
-0.00254112
0.0137048
0.0288792
0.0422467
0.0534636
0.0628791
0.0703663
0.0756133
0.0793521
0.0818373
0.0836436
0.0851356
0.0865166
0.0879179
0.0893776
0.0909625
0.0927091
0.0946361
0.0967287
0.0989632
0.10136
0.103973
0.107049
0.109802
0.11227
0.114463
0.116024
0.11654
0.119983
0.125606
0.134101
0.149369
0.391106
0.395573
0.396673
0.395843
0.393235
0.388209
0.38347
0.378749
0.373822
0.368846
0.364061
0.358128
0.351738
0.345312
0.340449
0.334371
0.325644
0.315392
0.303405
0.287764
0.273521
0.259417
0.244356
0.228136
0.211017
0.192558
0.172924
0.152786
0.132587
0.112428
0.0926807
0.073549
0.0546583
0.034691
0.0170402
0.000610376
-0.0150207
-0.0298363
-0.0438408
-0.0576679
-0.0709517
-0.0835497
-0.095341
-0.106201
-0.116015
-0.12469
-0.132189
-0.138592
-0.14324
-0.146239
-0.147601
-0.147326
-0.145274
-0.141162
-0.135046
-0.12706
-0.117962
-0.106002
-0.091294
-0.0744051
-0.0559621
-0.0372405
-0.0177799
0.000617357
0.0177606
0.0327744
0.0451654
0.0552585
0.0630023
0.0681486
0.0715965
0.0736555
0.0749547
0.0759826
0.0770591
0.0783096
0.079711
0.0813156
0.0831623
0.0852661
0.0875735
0.0900211
0.0926301
0.0954618
0.098771
0.101772
0.104509
0.107011
0.108937
0.109823
0.113502
0.119213
0.127774
0.143126
0.386436
0.390939
0.3919
0.390853
0.387932
0.382348
0.377178
0.372048
0.366639
0.360926
0.354935
0.348331
0.34133
0.334177
0.327881
0.320533
0.311098
0.30029
0.28802
0.273371
0.258872
0.243906
0.227814
0.210219
0.191134
0.171782
0.15174
0.131349
0.110866
0.0905941
0.0708554
0.0517918
0.0332991
0.0150184
-0.00224764
-0.0187993
-0.0347766
-0.0501578
-0.064938
-0.0794028
-0.0933397
-0.106628
-0.11917
-0.130774
-0.141306
-0.150671
-0.158793
-0.165659
-0.170856
-0.174401
-0.1763
-0.176722
-0.17547
-0.171502
-0.165206
-0.156699
-0.146496
-0.133318
-0.117396
-0.0991115
-0.0783769
-0.0564583
-0.0341265
-0.0126524
0.00715012
0.0245396
0.0388135
0.0493891
0.0565333
0.0611601
0.0636512
0.0649465
0.0653487
0.0654491
0.0662394
0.0676799
0.0690952
0.0707585
0.0727597
0.0752276
0.0779813
0.0806981
0.0835539
0.0866384
0.0902403
0.0935268
0.0965667
0.0994347
0.101942
0.103865
0.107742
0.11261
0.120836
0.135425
0.381652
0.386184
0.386997
0.385722
0.382476
0.376321
0.370704
0.365151
0.359244
0.352775
0.345559
0.338257
0.330617
0.322702
0.314935
0.306277
0.2961
0.284716
0.272172
0.258551
0.243834
0.228043
0.210978
0.192098
0.171163
0.151026
0.130652
0.110018
0.0891811
0.0687164
0.0489449
0.0299355
0.0118335
-0.00477172
-0.0216701
-0.0383655
-0.0547148
-0.0706909
-0.0862795
-0.101418
-0.116048
-0.130069
-0.143411
-0.155814
-0.16713
-0.177257
-0.186089
-0.193513
-0.199367
-0.203577
-0.206143
-0.207399
-0.207092
-0.203423
-0.197113
-0.188278
-0.177177
-0.162925
-0.145823
-0.126055
-0.1028
-0.0772909
-0.0515389
-0.0263135
-0.00320351
0.0169586
0.0331327
0.0438756
0.0499703
0.0537049
0.0550105
0.0554627
0.0550137
0.054282
0.0548616
0.0565416
0.0580166
0.0597877
0.0619918
0.0648684
0.0681097
0.0711352
0.0742761
0.0776505
0.08158
0.0851834
0.0885535
0.091809
0.0949144
0.0978813
0.101943
0.105944
0.113823
0.127665
0.376772
0.381189
0.381833
0.380328
0.376789
0.37028
0.364281
0.358322
0.351957
0.344943
0.337122
0.329227
0.320984
0.3124
0.30386
0.294431
0.28358
0.271605
0.258569
0.244542
0.229317
0.21288
0.195089
0.175427
0.153738
0.133032
0.112276
0.0913866
0.0703685
0.0497704
0.0298968
0.0108213
-0.00725864
-0.0237766
-0.0407417
-0.0577094
-0.0744865
-0.0910152
-0.107244
-0.123068
-0.138424
-0.153214
-0.167363
-0.180601
-0.192766
-0.20375
-0.213429
-0.221684
-0.228359
-0.23337
-0.236705
-0.23869
-0.239
-0.235744
-0.229638
-0.220835
-0.209664
-0.194838
-0.176467
-0.154768
-0.128792
-0.0996729
-0.0699429
-0.0403977
-0.0130498
0.0101593
0.0274521
0.0375744
0.0422253
0.0446603
0.0449413
0.0447462
0.0440687
0.0433042
0.0438117
0.0454271
0.0469682
0.0489087
0.0513581
0.0545434
0.0581211
0.0614764
0.064944
0.0686489
0.0729161
0.0768636
0.0805879
0.0842217
0.087757