# vtk DataFile Version 3.0
Gravity inversion using rectangular prisms
ASCII
DATASET UNSTRUCTURED_GRID

POINTS	28753	double
-40	-37.2	0
-40	-37.2	10
-40	-37.2	20
-40	-37.2	30
-40	-37.2	40
-40	-37.2	50
-40	-37.2	60
-40	-37.2	80
-40	-37.2	90
-40	-37.2	100
-40	-37.2	120
-40	-37.2	140
-40	-37.2	160
-40	-37.2	180
-40	-37.2	200
-40	-37.2	220
-40	-37.2	240
-40	-27.9	0
-40	-27.9	10
-40	-27.9	20
-40	-27.9	30
-40	-27.9	40
-40	-27.9	50
-40	-27.9	60
-40	-27.9	80
-40	-27.9	90
-40	-27.9	100
-40	-18.6	0
-40	-18.6	10
-40	-18.6	20
-40	-18.6	30
-40	-18.6	40
-40	-18.6	50
-40	-18.6	60
-40	-18.6	80
-40	-18.6	90
-40	-18.6	100
-40	-18.6	110
-40	-18.6	120
-40	-18.6	140
-40	-18.6	160
-40	-18.6	180
-40	-18.6	200
-40	-18.6	220
-40	-18.6	240
-40	-9.3	0
-40	-9.3	10
-40	-9.3	20
-40	-9.3	30
-40	-9.3	40
-40	-9.3	50
-40	-9.3	60
-40	-9.3	80
-40	-9.3	90
-40	-9.3	100
-40	-9.3	110
-40	-9.3	120
-40	0	0
-40	0	10
-40	0	20
-40	0	30
-40	0	40
-40	0	50
-40	0	60
-40	0	80
-40	0	90
-40	0	100
-40	0	110
-40	0	120
-40	0	140
-40	0	160
-40	0	180
-40	0	200
-40	0	220
-40	0	240
-40	9.3	0
-40	9.3	10
-40	9.3	20
-40	9.3	30
-40	9.3	40
-40	9.3	50
-40	9.3	60
-40	9.3	80
-40	9.3	90
-40	9.3	100
-40	9.3	110
-40	9.3	120
-40	18.6	0
-40	18.6	10
-40	18.6	20
-40	18.6	30
-40	18.6	40
-40	18.6	50
-40	18.6	60
-40	18.6	70
-40	18.6	80
-40	18.6	90
-40	18.6	100
-40	18.6	110
-40	18.6	120
-40	18.6	140
-40	18.6	160
-40	18.6	180
-40	18.6	200
-40	18.6	220
-40	18.6	240
-40	27.9	0
-40	27.9	10
-40	27.9	20
-40	27.9	30
-40	27.9	40
-40	27.9	50
-40	27.9	60
-40	27.9	70
-40	27.9	80
-40	27.9	90
-40	27.9	100
-40	27.9	110
-40	27.9	120
-40	37.2	0
-40	37.2	10
-40	37.2	20
-40	37.2	30
-40	37.2	40
-40	37.2	50
-40	37.2	60
-40	37.2	70
-40	37.2	80
-40	37.2	90
-40	37.2	100
-40	37.2	110
-40	37.2	120
-40	37.2	140
-40	37.2	160
-40	37.2	180
-40	37.2	200
-40	37.2	220
-40	37.2	240
-40	46.5	0
-40	46.5	10
-40	46.5	20
-40	46.5	30
-40	46.5	40
-40	46.5	50
-40	46.5	60
-40	46.5	70
-40	46.5	80
-40	46.5	90
-40	46.5	100
-40	46.5	110
-40	46.5	120
-40	55.8	0
-40	55.8	10
-40	55.8	20
-40	55.8	30
-40	55.8	40
-40	55.8	50
-40	55.8	60
-40	55.8	70
-40	55.8	80
-40	55.8	90
-40	55.8	100
-40	55.8	110
-40	55.8	120
-40	55.8	140
-40	55.8	160
-40	55.8	180
-40	55.8	200
-40	55.8	220
-40	55.8	240
-40	65.1	0
-40	65.1	10
-40	65.1	20
-40	65.1	30
-40	65.1	40
-40	65.1	60
-40	65.1	70
-40	65.1	80
-40	65.1	90
-40	65.1	100
-40	65.1	110
-40	65.1	120
-40	74.4	0
-40	74.4	10
-40	74.4	20
-40	74.4	30
-40	74.4	40
-40	74.4	60
-40	74.4	70
-40	74.4	80
-40	74.4	90
-40	74.4	100
-40	74.4	110
-40	74.4	120
-40	74.4	140
-40	74.4	160
-40	74.4	180
-40	74.4	200
-40	74.4	220
-40	74.4	240
-40	83.7	0
-40	83.7	10
-40	83.7	20
-40	83.7	30
-40	83.7	40
-40	83.7	60
-40	83.7	70
-40	83.7	80
-40	83.7	90
-40	83.7	100
-40	83.7	110
-40	83.7	120
-40	93	0
-40	93	10
-40	93	20
-40	93	30
-40	93	40
-40	93	50
-40	93	60
-40	93	70
-40	93	80
-40	93	90
-40	93	100
-40	93	110
-40	93	120
-40	93	140
-40	93	160
-40	93	180
-40	93	200
-40	93	220
-40	93	240
-40	102.3	0
-40	102.3	10
-40	102.3	20
-40	102.3	30
-40	102.3	40
-40	102.3	50
-40	102.3	60
-40	102.3	70
-40	102.3	80
-40	102.3	90
-40	102.3	100
-40	102.3	110
-40	102.3	120
-40	111.6	0
-40	111.6	10
-40	111.6	20
-40	111.6	30
-40	111.6	40
-40	111.6	50
-40	111.6	60
-40	111.6	70
-40	111.6	80
-40	111.6	90
-40	111.6	100
-40	111.6	110
-40	111.6	120
-40	111.6	140
-40	111.6	160
-40	111.6	180
-40	111.6	200
-40	111.6	220
-40	111.6	240
-40	120.9	0
-40	120.9	10
-40	120.9	20
-40	120.9	30
-40	120.9	40
-40	120.9	50
-40	120.9	60
-40	120.9	70
-40	120.9	80
-40	120.9	90
-40	120.9	100
-40	120.9	110
-40	120.9	120
-40	130.2	0
-40	130.2	10
-40	130.2	20
-40	130.2	30
-40	130.2	40
-40	130.2	50
-40	130.2	60
-40	130.2	70
-40	130.2	80
-40	130.2	90
-40	130.2	100
-40	130.2	110
-40	130.2	120
-40	130.2	140
-40	130.2	160
-40	130.2	180
-40	130.2	200
-40	130.2	220
-40	130.2	240
-40	139.5	0
-40	139.5	10
-40	139.5	20
-40	139.5	30
-40	139.5	40
-40	139.5	50
-40	139.5	60
-40	139.5	70
-40	139.5	80
-40	139.5	90
-40	139.5	100
-40	139.5	110
-40	139.5	120
-40	148.8	0
-40	148.8	10
-40	148.8	20
-40	148.8	30
-40	148.8	40
-40	148.8	50
-40	148.8	60
-40	148.8	70
-40	148.8	80
-40	148.8	90
-40	148.8	100
-40	148.8	110
-40	148.8	120
-40	148.8	140
-40	148.8	160
-40	148.8	180
-40	148.8	200
-40	148.8	220
-40	148.8	240
-40	158.1	0
-40	158.1	10
-40	158.1	20
-40	158.1	30
-40	158.1	40
-40	158.1	50
-40	158.1	60
-40	158.1	70
-40	158.1	80
-40	158.1	90
-40	158.1	100
-40	158.1	110
-40	158.1	120
-40	167.4	0
-40	167.4	10
-40	167.4	20
-40	167.4	30
-40	167.4	40
-40	167.4	50
-40	167.4	60
-40	167.4	70
-40	167.4	80
-40	167.4	90
-40	167.4	100
-40	167.4	110
-40	167.4	120
-40	167.4	140
-40	167.4	160
-40	167.4	180
-40	167.4	200
-40	167.4	220
-40	167.4	240
-40	176.7	0
-40	176.7	10
-40	176.7	20
-40	176.7	30
-40	176.7	40
-40	176.7	50
-40	176.7	60
-40	176.7	70
-40	176.7	80
-40	176.7	90
-40	176.7	100
-40	176.7	110
-40	176.7	120
-40	186	0
-40	186	10
-40	186	20
-40	186	30
-40	186	40
-40	186	50
-40	186	60
-40	186	70
-40	186	80
-40	186	90
-40	186	100
-40	186	110
-40	186	120
-40	186	140
-40	186	160
-40	186	180
-40	186	200
-40	186	220
-40	186	240
-40	195.3	0
-40	195.3	10
-40	195.3	20
-40	195.3	30
-40	195.3	40
-40	195.3	60
-40	195.3	70
-40	195.3	80
-40	195.3	90
-40	195.3	100
-40	195.3	110
-40	195.3	120
-40	204.6	0
-40	204.6	10
-40	204.6	20
-40	204.6	30
-40	204.6	40
-40	204.6	60
-40	204.6	70
-40	204.6	80
-40	204.6	90
-40	204.6	100
-40	204.6	110
-40	204.6	120
-40	204.6	140
-40	204.6	160
-40	204.6	180
-40	204.6	200
-40	204.6	220
-40	204.6	240
-40	213.9	0
-40	213.9	10
-40	213.9	20
-40	213.9	30
-40	213.9	40
-40	213.9	80
-40	213.9	90
-40	213.9	100
-40	213.9	110
-40	213.9	120
-40	223.2	0
-40	223.2	10
-40	223.2	20
-40	223.2	30
-40	223.2	40
-40	223.2	60
-40	223.2	80
-40	223.2	90
-40	223.2	100
-40	223.2	110
-40	223.2	120
-40	223.2	140
-40	223.2	160
-40	223.2	180
-40	223.2	200
-40	223.2	220
-40	223.2	240
-30	-37.2	0
-30	-37.2	10
-30	-37.2	20
-30	-37.2	30
-30	-37.2	40
-30	-37.2	50
-30	-37.2	60
-30	-37.2	80
-30	-37.2	90
-30	-37.2	100
-30	-27.9	0
-30	-27.9	10
-30	-27.9	20
-30	-27.9	30
-30	-27.9	40
-30	-27.9	50
-30	-27.9	60
-30	-27.9	80
-30	-27.9	90
-30	-27.9	100
-30	-18.6	0
-30	-18.6	10
-30	-18.6	20
-30	-18.6	30
-30	-18.6	40
-30	-18.6	50
-30	-18.6	60
-30	-18.6	80
-30	-18.6	90
-30	-18.6	100
-30	-18.6	110
-30	-18.6	120
-30	-9.3	0
-30	-9.3	10
-30	-9.3	20
-30	-9.3	30
-30	-9.3	40
-30	-9.3	50
-30	-9.3	60
-30	-9.3	80
-30	-9.3	90
-30	-9.3	100
-30	-9.3	110
-30	-9.3	120
-30	0	0
-30	0	10
-30	0	20
-30	0	30
-30	0	40
-30	0	50
-30	0	60
-30	0	80
-30	0	90
-30	0	100
-30	0	110
-30	0	120
-30	9.3	0
-30	9.3	10
-30	9.3	20
-30	9.3	30
-30	9.3	40
-30	9.3	50
-30	9.3	60
-30	9.3	80
-30	9.3	90
-30	9.3	100
-30	9.3	110
-30	9.3	120
-30	18.6	0
-30	18.6	10
-30	18.6	20
-30	18.6	30
-30	18.6	40
-30	18.6	50
-30	18.6	60
-30	18.6	70
-30	18.6	80
-30	18.6	90
-30	18.6	100
-30	18.6	110
-30	18.6	120
-30	27.9	0
-30	27.9	10
-30	27.9	20
-30	27.9	30
-30	27.9	40
-30	27.9	50
-30	27.9	60
-30	27.9	70
-30	27.9	80
-30	27.9	90
-30	27.9	100
-30	27.9	110
-30	27.9	120
-30	37.2	0
-30	37.2	10
-30	37.2	20
-30	37.2	30
-30	37.2	40
-30	37.2	50
-30	37.2	60
-30	37.2	70
-30	37.2	80
-30	37.2	90
-30	37.2	100
-30	37.2	110
-30	37.2	120
-30	46.5	0
-30	46.5	10
-30	46.5	20
-30	46.5	30
-30	46.5	40
-30	46.5	50
-30	46.5	60
-30	46.5	70
-30	46.5	80
-30	46.5	90
-30	46.5	100
-30	46.5	110
-30	46.5	120
-30	55.8	0
-30	55.8	10
-30	55.8	20
-30	55.8	30
-30	55.8	40
-30	55.8	50
-30	55.8	60
-30	55.8	70
-30	55.8	80
-30	55.8	90
-30	55.8	100
-30	55.8	110
-30	55.8	120
-30	65.1	0
-30	65.1	10
-30	65.1	20
-30	65.1	30
-30	65.1	40
-30	65.1	60
-30	65.1	70
-30	65.1	80
-30	65.1	90
-30	65.1	100
-30	65.1	110
-30	65.1	120
-30	74.4	0
-30	74.4	10
-30	74.4	20
-30	74.4	30
-30	74.4	40
-30	74.4	60
-30	74.4	70
-30	74.4	80
-30	74.4	90
-30	74.4	100
-30	74.4	110
-30	74.4	120
-30	83.7	0
-30	83.7	10
-30	83.7	20
-30	83.7	30
-30	83.7	40
-30	83.7	60
-30	83.7	70
-30	83.7	80
-30	83.7	90
-30	83.7	100
-30	83.7	110
-30	83.7	120
-30	93	0
-30	93	10
-30	93	20
-30	93	30
-30	93	40
-30	93	50
-30	93	60
-30	93	70
-30	93	80
-30	93	90
-30	93	100
-30	93	110
-30	93	120
-30	102.3	0
-30	102.3	10
-30	102.3	20
-30	102.3	30
-30	102.3	40
-30	102.3	50
-30	102.3	60
-30	102.3	70
-30	102.3	80
-30	102.3	90
-30	102.3	100
-30	102.3	110
-30	102.3	120
-30	111.6	0
-30	111.6	10
-30	111.6	20
-30	111.6	30
-30	111.6	40
-30	111.6	50
-30	111.6	60
-30	111.6	70
-30	111.6	80
-30	111.6	90
-30	111.6	100
-30	111.6	110
-30	111.6	120
-30	120.9	0
-30	120.9	10
-30	120.9	20
-30	120.9	30
-30	120.9	40
-30	120.9	50
-30	120.9	60
-30	120.9	70
-30	120.9	80
-30	120.9	90
-30	120.9	100
-30	120.9	110
-30	120.9	120
-30	130.2	0
-30	130.2	10
-30	130.2	20
-30	130.2	30
-30	130.2	40
-30	130.2	50
-30	130.2	60
-30	130.2	70
-30	130.2	80
-30	130.2	90
-30	130.2	100
-30	130.2	110
-30	130.2	120
-30	139.5	0
-30	139.5	10
-30	139.5	20
-30	139.5	30
-30	139.5	40
-30	139.5	50
-30	139.5	60
-30	139.5	70
-30	139.5	80
-30	139.5	90
-30	139.5	100
-30	139.5	110
-30	139.5	120
-30	148.8	0
-30	148.8	10
-30	148.8	20
-30	148.8	30
-30	148.8	40
-30	148.8	50
-30	148.8	60
-30	148.8	70
-30	148.8	80
-30	148.8	90
-30	148.8	100
-30	148.8	110
-30	148.8	120
-30	158.1	0
-30	158.1	10
-30	158.1	20
-30	158.1	30
-30	158.1	40
-30	158.1	50
-30	158.1	60
-30	158.1	70
-30	158.1	80
-30	158.1	90
-30	158.1	100
-30	158.1	110
-30	158.1	120
-30	167.4	0
-30	167.4	10
-30	167.4	20
-30	167.4	30
-30	167.4	40
-30	167.4	50
-30	167.4	60
-30	167.4	70
-30	167.4	80
-30	167.4	90
-30	167.4	100
-30	167.4	110
-30	167.4	120
-30	176.7	0
-30	176.7	10
-30	176.7	20
-30	176.7	30
-30	176.7	40
-30	176.7	50
-30	176.7	60
-30	176.7	70
-30	176.7	80
-30	176.7	90
-30	176.7	100
-30	176.7	110
-30	176.7	120
-30	186	0
-30	186	10
-30	186	20
-30	186	30
-30	186	40
-30	186	50
-30	186	60
-30	186	70
-30	186	80
-30	186	90
-30	186	100
-30	186	110
-30	186	120
-30	195.3	0
-30	195.3	10
-30	195.3	20
-30	195.3	30
-30	195.3	40
-30	195.3	60
-30	195.3	70
-30	195.3	80
-30	195.3	90
-30	195.3	100
-30	195.3	110
-30	195.3	120
-30	204.6	0
-30	204.6	10
-30	204.6	20
-30	204.6	30
-30	204.6	40
-30	204.6	60
-30	204.6	70
-30	204.6	80
-30	204.6	90
-30	204.6	100
-30	204.6	110
-30	204.6	120
-30	213.9	0
-30	213.9	10
-30	213.9	20
-30	213.9	30
-30	213.9	40
[...]
CELL_DATA	23205
SCALARS model double 1
LOOKUP_TABLE table0
31.3705
110.958
31.7504
111.754
31.0071
110.118
31.0442
111.013
277.563
366.728
279.046
368.54
277.622
367.351
279.519
369.716
522.728
524.677
523.536
525.309
522.82
524.728
523.846
525.495
542.371
460.432
459.918
459.387
459.034
459.653
459.267
458.608
458.386
345.505
286.559
284.565
310.231
329.816
331.447
337.005
32.187
113.13
32.4279
114.696
30.6685
112.545
29.8778
113.804
281.403
371.235
283.641
373.376
282.549
373.286
285.143
376.095
525.736
527.858
525.219
527.425
526.602
528.503
526.288
528.192
535.096
449.042
448.065
444.851
444.555
448.016
447.204
443.725
443.627
339.054
338.558
335.046
335.05
337.868
337.534
333.789
333.977
268.244
266.242
293.318
315.305
319.739
326.255
32.346
116.335
32.0526
119.325
28.6284
113.862
26.7183
114.477
285.317
373.923
287.237
372.762
286.106
376.595
286.698
374.783
520.587
522.145
515.278
517.825
521.547
522.822
515.837
518.258
508.613
417.02
415.561
408.13
408.125
414.935
413.796
405.973
406.295
303.432
302.495
294.845
295.123
301.399
300.734
292.577
293.189
228.699
228.892
259.985
287.271
297.428
306.025
32.9076
125.501
34.9359
133.546
27.6215
121.551
31.946
135.608
290.538
370.163
294.122
365.977
290.236
371.614
296.158
366.978
501.553
501.803
490.713
492.887
500.95
501.172
489.029
491.448
482.503
481.491
471.498
472.183
479.886
479.367
468.192
469.644
363.49
361.483
349.4
349.664
361.789
359.854
345.83
346.404
245.338
244.055
232.473
232.988
241.485
240.694
228.502
229.528
169.536
176.229
214.195
249.604
267.796
279.388
35.9971
137.893
33.2395
133.163
35.526
146.124
32.7545
140.624
294.167
359.037
287.695
349.313
297.547
358.633
288.239
345.806
469.085
469.287
449.528
460.933
465.036
465.529
444.299
455.939
432.668
430.538
417.604
418.323
427.215
426.183
411.066
413.262
296.176
293.648
281.59
281.058
293.711
291.234
275.636
275.606
174.911
173.402
159.977
160.528
171.963
170.683
154.962
155.99
100.582
114.641
161.816
207.996
235.356
250.342
27.3806
120.483
21.5192
106.126
24.9217
121.229
16.9928
101.139
276.227
338.698
265.096
331.781
270.582
331.129
253.296
320.688
395.344
382.699
381.057
370.536
371.177
373.884
373.926
361.298
363.687
246.784
242.466
223.896
219.995
235.058
230.811
209.665
205.992
109.206
107.768
96.1883
96.5757
104.983
103.873
90.0394
90.9938
33.7314
57.9592
113.465
169.055
205.003
223.105
17.2351
96.0164
14.8039
93.3382
11.3674
88.2151
7.20453
84.0347
259.701
331.627
263.334
339.739
243.249
318.23
243.988
325.57
385.976
353.469
352.923
350.401
350.451
345.099
345.799
341.794
342.849
205.92
200.739
196.025
190.9
190.291
185.288
179.689
174.656
62.1518
61.0795
54.6122
54.5648
56.5422
55.9334
47.9309
48.4439
-14.3274
15.2032
76.2003
138.582
181.058
201.355
14.5857
99.3137
17.3335
111.475
6.52481
92.0999
12.1384
110.715
276.493
355.028
295.245
372.69
257.943
342.482
282.194
364.456
430.112
436.365
449.417
452.542
416.177
426.196
437.169
443.246
355.655
356.035
360.871
360.173
347.186
348.335
353.695
353.419
192.249
186.46
193.859
187.642
176.029
170.22
178.484
172.083
42.0542
41.4218
41.0596
40.5494
35.6534
35.5045
34.6577
34.5843
-35.7341
-7.30102
54.9243
120.351
166.346
187.525
20.5051
122.841
22.6153
126.596
18.2268
128.309
21.1991
131.733
311.361
386.231
316.966
389.7
305.429
383.121
314.855
389.543
469.975
474.719
477.547
480.405
460.953
467.965
470.919
475.03
376.106
376.387
381.832
381.014
369.308
369.752
376.332
375.537
199.747
193.479
206.465
199.864
185.736
179.211
194.011
187.055
46.7582
46.4811
50.4698
49.7093
40.4176
40.5435
44.822
44.3689
-30.7913
-9.17093
50.5373
115.229
161.629
182.366
23.9253
122.797
25.7702
117.16
21.8402
122.684
23.0229
113.341
310.668
382.047
298.384
367.254
307.935
381.442
294.108
364.271
478.894
481.482
473.955
477.61
475.215
478.947
470.897
475.522
390.485
390.351
392.551
392.187
384.958
385.166
387.106
387.791
213.955
207.937
219.543
213.75
203.026
196.736
209.903
203.96
66.1543
66.0948
72.3423
71.5118
60.3031
60.6258
67.1614
66.7208
-6.19658
4.70813
61.9136
121.143
165.584
184.898
28.4528
113.896
31.9898
115.342
25.4774
108.624
28.7782
108.974
287.33
350.278
280.757
333.542
283.154
345.232
274.818
327.937
458.733
460.089
447.912
451.445
456.273
458.775
445.316
450.001
393.166
392.959
392.16
392.191
388.886
389.754
388.13
389.17
224.138
219.859
228.861
226.854
215.661
211.552
221.602
219.839
93.99
94.1513
99.7346
99.1492
88.7309
89.5979
94.6796
94.7995
24.7317
29.0624
78.6078
134.087
175.308
192.762
37.1028
122.822
44.1466
135.882
34.1642
117.252
43.0621
134.385
279.713
318.638
281.92
308.127
273.516
313.684
277.511
303.899
431.588
433.703
419.692
431.543
428.555
431.54
417.172
429.031
385.566
384.945
382.868
382.64
382.229
382.523
379.906
380.434
243.521
242.998
246.84
245.844
238.779
239.073
242.807
242.544
113.405
113.207
116.611
115.958
109.71
110.086
113.298
113.127
49.2824
50.9352
96.9105
149.061
187.137
202.831
51.9587
151.21
58.1191
164.028
54.1869
155.559
61.4735
172.43
283.913
301.034
283.562
296.653
281.978
296.859
282.582
292.144
415.353
373.918
372.672
370.652
373.309
371.18
370.507
368.492
371.339
247.303
246.062
247.622
246.261
243.914
243.287
244.539
243.691
121.159
120.515
122.211
121.382
118.714
118.447
120.021
119.501
67.5881
67.7057
111.774
161.779
197.502
211.909
62.0138
171.852
62.9976
173.607
64.0769
180.809
64.7177
182.419
281.352
293.617
280.426
292.705
279.539
288.639
278.038
287.464
415.286
381.439
245.298
243.479
245.363
243.525
242.376
241.004
242.569
241.146
121.045
119.988
121.3
120.197
119.091
118.293
119.449
118.581
74.9026
74.1094
117.22
166.325
201.204
215.123
29.5288
108.016
28.7681
109.369
26.4872
103.644
25.0862
105.788
276.824
367.463
279.646
370.857
273.237
364.957
277.163
369.448
522.973
525.057
524.646
526.353
520.406
523.115
522.458
524.638
535.133
451.518
450.666
450.194
449.543
448.709
448.343
447.341
447.192
341.308
340.863
339.833
339.582
338.44
338.37
336.92
337.057
269.503
266.578
292.883
314.353
318.496
325.033
27.5972
112.075
27.2849
114.793
25.2553
111.965
29.1776
124.171
284.615
376.273
289.285
380.865
285.55
377.345
296.184
385.21
529.204
531.544
529.539
531.683
528.134
530.675
529.253
531.206
526.662
437.067
435.773
431.407
431.001
433.413
432.717
427.681
427.873
323.921
323.056
318.37
318.258
319.913
319.603
314.07
314.591
247.65
245.544
273.772
297.979
305.285
313.001
26.9056
113.189
22.002
105.892
37.5906
130.625
21.3918
108.157
289.803
381.724
286.511
378.31
299.972
388.058
291.204
383.22
524.409
525.621
517.166
519.819
524.609
525.477
516.527
519.322
513.463
512.58
504.488
505.118
510.299
509.973
501.162
502.383
394.748
392.438
385.039
384.043
390.607
388.713
378.086
377.862
278.6
277.126
267.035
267.12
271.935
271.329
260.05
261.067
194.546
200.165
235.804
266.574
280.379
290.617
22.8604
111.766
31.4271
138.118
20.6789
105.051
34.987
139.087
287.536
372.377
294.619
363.991
283.173
371.615
279.515
352.191
497.889
497.729
481.43
484.141
493.915
495.134
472.351
479.107
464.055
461.414
446.805
447.314
458.764
456.73
437.512
439.394
346.079
341.446
316.474
312.654
331.74
326.771
297.607
293.819
203.88
201.236
189.783
188.926
196.396
194.554
177.649
178.197
151.219
150.696
139.981
140.57
143.582
143.816
131.877
133.341
134.243
179.073
224.31
247.5
261.354
41.0888
162.52
37.4639
154.833
61.1067
170.894
51.2897
154.781
295.832
350.042
280.761
330.407
265.863
323.175
240.666
291.866
449.822
448.469
424.521
428.978
431.465
436.658
399.643
412.595
397.379
393.968
375.704
376.082
385.803
384.127
359.05
361.98
275.017
268.508
241.968
236.154
255.297
248.547
214.653
208.231
144.186
140.423
111.174
108.565
118.267
114.973
77.3831
76.0387
73.9068
72.7098
58.9332
59.6137
62.3664
62.3453
47.0662
48.9965
86.6036
86.5126
78.1133
78.7675
79.0236
79.6316
70.2603
71.6731
135.347
135.357
130.019
130.461
130.881
131.273
125.435
126.283
175.929
211.683
229.642
23.2571
120.83
12.4017
93.193
16.8768
109.344
4.51605
88.3637
254.835
310.321
232.402
297.223
217.765
269.491
207.045
260.48
386.939
388.844
366.982
373.456
359.372
368.077
339.098
351.515
331.771
328.072
316.809
315.115
311.745
311.185
288.194
289.698
205.217
197.543
177.455
170.182
172.874
164.827
138.769
131.115
69.5422
64.9552
41.2241
37.7869
32.02
28.4605
-2.43916
-4.41188
-5.90874
-7.22273
-19.814
-19.4064
-17.3606
-17.5677
-33.3364
-31.5584
23.0004
22.698
14.4333
15.0897
13.1191
13.7198
4.23029
5.85696
81.0885
80.9629
75.6754
76.1115
75.1203
75.51
69.5638
70.5426
132.289
178.373
200.151
5.3829
80.4297
-3.31869
73.2789
2.72993
91.2907
-11.8564
50.8502
105.278
49.2623
106.709
61.8437
109.559
59.2663
110.079
219.384
293.683
216.458
300.368
202.795
260.152
197.983
265.969
356.583
363.321
358.638
365.394
327.808
340.821
327.577
341.343
303.389
298.912
298.459
292.487
259.962
254.365
249.073
241.559
155.474
146.776
143.28
134.298
112.031
103.434
97.0006
88.03
12.7182
8.06249
-2.955
-7.20203
-33.7247
-37.0692
-52.6931
-55.4824
-63.9275
-64.9497
-72.4026
-72.39
-77.8401
-77.553
-87.7819
-86.2619
-26.6329
-26.7373
-32.442
-31.8995
-38.3703
-37.3965
-44.3859
-42.7215
38.5728
38.5546
34.7644
35.1422
31.5535
32.1471
27.6594
28.6659
98.7136
152.556
176.961
-3.16192
84.1349
6.43273
116.451
-16.3699
12.7694
-11.3926
14.5175
-19.241
26.1211
-12.6585
28.1964
54.1574
113.799
65.9863
127.286
62.9942
115.716
73.7142
127.827
3.838
83.1764
145.988
104.796
168.196
91.117
148.29
111.461
170.68
230.708
318.959
263.745
347.211
208.801
283.69
247.634
316.971
380.485
387.191
402.135
403.705
343.251
358.562
367.724
377.958
303.531
296.226
314.975
306.189
253.815
244.689
269.521
258.419
139.737
129.852
143.904
133.174
93.2981
83.1743
99.8268
88.3122
-13.045
-17.976
-14.0894
-19.2971
-63.1977
-66.8183
-63.5825
-67.6779
-91.2322
-91.8713
-92.8538
-93.2962
-106.614
-105.787
-108.44
-107.417
-53.5097
-53.3907
-55.4978
-55.153
-66.0254
-64.7464
-68.0257
-66.517
13.9513
14.0558
12.3801
12.6517
6.47898
7.23965
4.90243
5.83237
79.5948
137.405
162.773
19.6469
106.821
160.83
117.224
173.597
116.006
174.121
126.55
186.085
23.4337
148.288
29.3721
126.757
189.526
140.909
203.156
138.466
199.641
155.295
215.918
33.7658
143.479
204.241
133.948
192.517
160.192
221.684
148.587
209.573
299.627
374.733
315.333
387.189
296.595
355.501
321.857
378.406
431.887
435.277
449.395
449.216
403.896
414.223
430.464
435.083
331.552
321.955
344.943
335.267
291.731
279.166
312.772
299.823
153.902
142.989
165.597
154.252
113.955
101.536
130.801
117.501
-8.12107
-13.3891
0.885544
-4.81135
-55.5147
-59.8015
-43.0129
-48.0895
-87.0551
-87.3167
-82.0862
-82.9129
-102.229
-101.076
-96.7932
-96.3605
-56.4228
-56.1299
-54.8875
-54.7562
-68.4359
-67.0167
-66.7233
-65.4976
8.5214
8.72907
8.65183
8.86714
1.31115
2.15568
1.60965
2.43168
76.2804
133.782
158.403
19.6617
122.423
18.7068
104.781
15.3384
121.939
11.6228
90.0341
304.998
379.202
287.11
358.405
305.251
373.999
278.225
350.785
463.522
466.813
462.841
467.49
453.612
460.034
455.251
462.202
354.445
347.341
358.916
356.67
328.247
318.092
338.277
333.998
177.846
167.513
187.527
178.191
147.684
135.256
161.105
150.216
14.7208
9.83897
26.5372
21.7742
-25.5706
-29.8921
-6.42252
-11.0641
-54.1412
-53.8918
-48.7473
-49.2131
-68.8683
-67.1039
-62.8808
-61.937
-40.7139
-40.45
-38.2045
-38.2634
-51.184
-49.9204
-48.2107
-47.3568
17.7874
85.9952
140.188
162.715
20.5575
98.3028
21.8441
94.5161
15.7544
79.3678
10.3434
68.4338
272.93
291.409
264.523
289.299
265.915
291.051
258.939
289.086
335.785
263.17
317.064
263.964
324.343
251.404
302.299
451.437
456.017
440.323
447.298
446.543
454.344
434.388
445.059
368.154
368.294
369.646
369.889
354.467
356.091
357.479
360.205
195.326
188.955
201.155
197.648
171.64
164.359
181.005
176.788
47.9226
46.6571
55.5956
53.7866
30.3551
30.8065
42.2287
41.8095
-22.151
-13.449
41.7602
106.357
153.11
173.01
26.366
102.55
39.1789
127.333
9.93691
73.2944
25.4043
102.262
258.5
302.762
264.649
292.936
234.046
284.999
237.596
272.194
421.472
425.043
409.975
415.162
412.11
419.537
398.779
407.443
367.252
367.297
365.761
365.817
357.418
359.958
356.626
358.899
213.178
211.83
216.9
215.164
200.115
200.137
205.666
205.573
79.3221
78.7803
85.4565
84.1381
67.713
68.7148
74.5835
74.682
13.9071
22.0551
70.5242
126.196
168.335
185.717
58.9094
162.94
69.9974
190.729
71.2667
164.353
82.3683
205.477
274.932
285.345
278.744
279.901
257.066
262.521
268.806
256.81
394.866
394.162
388.21
387.795
380.308
382.184
373.509
375.269
356.855
355.15
355.027
353.522
347.876
348.067
346.78
346.625
220.47
218.695
221.805
219.671
209.325
209.297
210.927
210.456
96.5172
95.5303
99.0093
97.6186
88.3484
88.521
91.4641
91.0717
46.8642
46.6369
91.0264
143.091
181.703
197.17
147.56
274.917
275.705
272.478
274.16
265.946
252.641
262.93
250.986
384.323
382.867
383.118
382.031
368.843
369.153
367.688
368.414
351.326
348.689
351.121
348.514
342.789
341.306
342.842
341.307
219.62
216.849
219.934
217.068
208.789
207.572
209.276
207.91
99.0573
97.3813
99.6354
97.8509
92.0921
91.3113
92.8483
91.9138
58.2547
55.6694
98.6294
149.164
186.549
201.291
21.8225
95.4414
19.921
97.3735
15.2485
83.3797
11.1054
82.2919
265.083
357.845
269.054
362.77
252.749
345.799
255.066
350.176
510.561
512.503
513.024
514.44
502.097
506.238
504.553
508.285
513.293
427.919
426.842
425.939
425.148
422.487
422.36
420.421
420.611
312.724
311.995
310.526
310.075
306.984
307.096
304.669
305.087
234.851
231.697
260.061
285.5
294.616
303.108
22.9032
106.601
38.6878
135.188
11.4258
85.8212
18.9146
109.717
279.894
372.639
297.907
384.564
264.895
360.642
285.338
376.185
520.067
522.049
522.623
523.61
512.189
516.498
515.843
518.74
502.101
407.487
405.592
401.908
400.582
400.813
400.025
394.178
394.061
287.735
286.414
279.411
279.16
280.363
280.057
271.869
272.65
200.834
202.918
236.756
265.956
278.921
288.988
101.449
166.822
70.3306
135.152
73.9826
147.186
44.9219
127.901
310.24
392.327
301.734
390.273
307.433
391.934
314.261
401.403
520.028
519.964
511.858
513.718
515.546
516.604
509.518
511.315
488.248
486.124
478.785
477.634
481.061
480.177
470.429
470.316
372.034
367.071
346.608
341.742
357.069
352.135
328.01
323.157
225.101
222.352
212.633
211.35
217.096
215.236
200.384
200.492
165.793
165.151
154.587
155.039
157.477
157.632
146.115
147.404
166.36
166.121
158.868
159.316
160.521
160.809
152.829
153.84
185.948
228.553
249.707
263.064
69.1938
118.974
90.7567
112.242
55.3487
130.677
66.051
86.8661
283.513
375.053
248.275
340.06
312.766
396.912
269.723
291.756
235.511
266.105
293.699
322.873
262.636
299.837
363.249
485.882
486.577
456.671
465.333
485.365
484.734
456.465
463.172
439.604
433.152
402.049
395.704
424.401
415.623
379.484
370.125
306.045
296.852
268.932
260.674
284.976
275.019
238.842
227.983
164.95
160.243
126.649
122.831
139.175
134.711
93.7152
91.1062
80.8668
78.7475
62.8375
62.8744
70.8279
69.8185
49.7474
51.3725
92.9069
92.3004
81.1443
81.8327
84.2569
84.4011
72.2456
73.7407
139.52
139.45
133.152
133.604
134.204
134.571
127.666
128.592
174.327
211.415
229.466
99.0324
44.9113
69.1827
-4.74466
32.7167
-15.7935
-16.4007
-146.918
1.07367
-84.3075
-72.9964
-246.901
-101.216
83.7731
-204.959
-2.57342
-81.5293
86.5169
-192.016
8.10468
-33.5104
-188.995
-15.4173
-121.936
-104.39
-292.898
-47.654
-177.849
-240.262
-36.8971
-187.922
-29.7394
-220.159
-20.0509
-156.583
-7.12985
184.948
286.995
144.675
240.963
189.351
234.132
145.784
205.634
217.395
267.823
177.99
242.177
300.043
120.723
187.456
121.068
184.702
154.14
223.317
153.157
218.025
242.734
402.119
409.012
357.162
371.973
398.188
402.017
341.816
352.773
353.591
345.187
309.143
301.766
324.287
311.414
264.056
249.663
222.286
211.599
172.229
160.199
181.064
166.128
117.957
100.83
72.3086
64.972
25.1677
19.6029
35.6393
30.1663
-20.1207
-23.672
-22.017
-24.9249
-38.3787
-39.2638
-36.7145
-37.9724
-60.2734
-58.4706
3.61434
2.47279
-9.89225
-9.59286
-6.71613
-6.75452
-22.3933
-20.6331
69.9162
69.4981
61.7407
62.1482
61.7342
62.1243
53.3368
54.6052
130.972
130.993
126.886
127.211
126.765
127.104
122.614
123.271
169.806
193.336
65.8802
29.4534
68.818
58.7501
20.3575
-19.8097
49.4587
44.4966
155.748
221.782
182.963
222.263
178.281
217.186
212.237
211.284
308.6
311.724
282.26
285.987
280.392
279.132
235.806
230.516
260.671
253.036
221.587
211.476
201.217
184.607
144.118
124.929
121.885
108.718
78.3371
65.4207
55.1827
37.7319
-0.760151
-17.3041
-26.4699
-34.23
-67.6605
-73.9114
-79.205
-84.0507
-128.638
-131.485
-81.7136
-83.4409
-113.2
-113.643
-128.182
-127.865
-168.868
-166.178
-78.6804
-80.003
-90.8075
-90.7648
-92.3603
-92.0728
-106.682
-104.653
-1.98308
-2.45586
-9.64431
-9.33805
-10.5773
-10.1438
-19.2033
-17.8444
80.5043
80.4591
76.4284
76.775
75.3662
75.7112
71.2126
71.9645
129.458
160.085
74.9819
86.2529
78.7165
79.2077
35.5816
50.3085
55.1495
-5.30859
195.517
224.099
182.034
222.851
221.891
199.608
167.582
175.363
265.143
270.689
256.506
263.957
197.68
185.054
168.342
159.686
190.265
177.489
175.816
161.954
99.2067
79.7072
72.8562
55.7179
44.7359
31.5201
25.2835
11.6145
-44.3581
-60.1547
-70.4415
-86.2409
-103.482
-110.935
-125.813
-132.791
-170.334
-173.503
-197.029
-199.496
-150.764
-152.652
-171.43
-172.414
-210.11
-208.898
-234.945
-232.439
-141.091
-142.271
-149.039
-149.324
-157.81
-156.943
-167.224
-165.224
-54.2639
-54.5907
-59.2862
-59.0986
-64.3239
-63.5905
-70.1048
-68.7349
40.9238
40.9654
38.0376
38.3577
35.0066
35.5016
32.0566
32.8429
100.13
134.464
73.8783
78.4712
61.394
112.146
49.798
-10.0014
9.94862
-1.26482
179.88
233.111
216.117
267.962
136.071
167.985
151.249
202.621
265.145
274.805
293.286
299.946
166.674
163.189
201.547
187.508
180.039
164.503
201
182.695
73.8995
55.6676
101.575
77.1837
20.9771
5.88555
30.7729
13.5353
-76.4507
-93.8126
-63.0677
-83.5633
-137.063
-144.882
-136.113
-144.646
-209.563
-212.856
-207.201
-211.739
-187.435
-189.108
-190.986
-192.741
-252.185
-250.441
-255.906
-254.312
-172.835
-173.721
-174.92
-175.564
-191.279
-189.872
-193.688
-192
-82.3426
-82.501
-83.9834
-83.9669
-93.3282
-92.31
-95.207
-93.9789
17.6576
17.7864
16.5523
16.79
11.1238
11.759
10.0151
10.7611
84.0052
119.622
74.5156
181.731
79.0815
215.568
37.5948
65.4709
34.3396
163.491
263.078
263.811
291.23
293.577
240.37
247.813
268.537
277.548
319.403
308.733
316.748
311.187
330.832
294.229
309.491
299.93
325.228
360.711
202.194
273.538
283.345
347.488
338.639
343.691
386.098
388.113
268.186
260.791
346.635
336.577
233.025
211.973
266.462
244.054
148.771
118.129
201.442
166.408
51.0998
31.7007
76.0715
55.1102
-34.6758
-59.0709
1.43214
-26.1314
-124.73
-133.664
-107.361
-117.324
-192.072
-197.931
-169.057
-176.879
-185.797
-187.84
-177.913
-181.438
-248.654
-247.569
-232.544
-233.732
-171.525
-172.075
-168.119
-169.01
-189.86
-188.138
-185.688
-184.471
-84.0963
-84.0894
-81.9583
-82.1419
-95.0998
-93.9092
-92.7579
-91.8378
14.2177
14.4179
14.8933
15.031
8.1262
8.801
8.86234
9.46484
82.1664
116.489
33.4218
138.512
1.56757
69.9302
8.48697
129.341
-1.3046
69.9533
307.424
368.849
277.723
347.793
311.61
381.365
296.497
366.259
429.011
433.871
440.563
444.973
414.715
411.561
437.022
437.032
292.866
272.566
307.946
293.591
245.602
211.364
273.169
246.735
100.69
80.209
120.821
102.824
37.9829
9.88041
69.6634
44.7164
-84.4831
-93.6533
-61.5412
-70.833
-140.222
-148.202
-111.408
-119.952
-161.396
-163.063
-152.032
-154.467
-190.203
-188.507
-174.599
-174.622
-143.308
-143.528
-135.627
-136.602
-159.839
-158.183
-150.797
-150.227
-57.7
-57.2143
-53.36
-53.3023
-67.5985
-66.279
-63.0956
-62.2397
25.9162
26.1153
27.2039
27.3212
20.4587
21.0804
21.873
22.3908
95.0106
123.681
1.05013
42.0284
-9.53942
32.6983
-13.8189
30.036
-16.4223
24.753
262.389
276.292
260.648
275.285
268.929
284.151
268.086
284.32
317.075
255.904
274.809
244.255
272.121
264.974
285.929
252.624
282.398
288.561
278.124
295.382
278.29
297.368
291.797
308.508
290.177
308.966
326.657
275.974
300.451
262.715
295.653
286.73
310.913
272.157
303.886
284.156
440.925
452.109
428.084
443.396
440.278
451.868
423.233
441.657
316.353
308.584
318.362
316.792
284.904
270.217
291.274
287.153
135.86
122.23
146.622
136.408
94.2509
75.5839
111.337
98.1267
-34.2489
-40.8494
-15.2862
-21.4166
-81.8562
-88.0556
-54.6082
-60.6513
-106.76