# vtk DataFile Version 3.0
Gravity inversion using rectangular prisms
ASCII
DATASET UNSTRUCTURED_GRID

POINTS	7070	double
-40	-37.2	0
-40	-37.2	20
-40	-37.2	30
-40	-37.2	40
-40	-37.2	60
-40	-37.2	80
-40	-37.2	100
-40	-37.2	120
-40	-37.2	140
-40	-37.2	160
-40	-37.2	180
-40	-37.2	200
-40	-37.2	220
-40	-37.2	240
-40	-27.9	20
-40	-27.9	30
-40	-27.9	40
-40	-18.6	0
-40	-18.6	20
-40	-18.6	30
-40	-18.6	40
-40	-18.6	60
-40	-18.6	80
-40	-18.6	100
-40	-18.6	120
-40	-18.6	140
-40	-18.6	160
-40	-18.6	180
-40	-18.6	200
-40	-18.6	220
-40	-18.6	240
-40	-9.3	20
-40	-9.3	30
-40	-9.3	40
-40	0	0
-40	0	20
-40	0	30
-40	0	40
-40	0	60
-40	0	80
-40	0	100
-40	0	120
-40	0	140
-40	0	160
-40	0	180
-40	0	200
-40	0	220
-40	0	240
-40	9.3	20
-40	9.3	30
-40	9.3	40
-40	18.6	0
-40	18.6	20
-40	18.6	30
-40	18.6	40
-40	18.6	60
-40	18.6	80
-40	18.6	100
-40	18.6	120
-40	18.6	140
-40	18.6	160
-40	18.6	180
-40	18.6	200
-40	18.6	220
-40	18.6	240
-40	27.9	20
-40	27.9	30
-40	27.9	40
-40	37.2	0
-40	37.2	20
-40	37.2	30
-40	37.2	40
-40	37.2	60
-40	37.2	80
-40	37.2	100
-40	37.2	120
-40	37.2	140
-40	37.2	160
-40	37.2	180
-40	37.2	200
-40	37.2	220
-40	37.2	240
-40	55.8	0
-40	55.8	20
-40	55.8	40
-40	55.8	60
-40	55.8	80
-40	55.8	100
-40	55.8	120
-40	55.8	140
-40	55.8	160
-40	55.8	180
-40	55.8	200
-40	55.8	220
-40	55.8	240
-40	74.4	0
-40	74.4	20
-40	74.4	40
-40	74.4	60
-40	74.4	80
-40	74.4	100
-40	74.4	120
-40	74.4	140
-40	74.4	160
-40	74.4	180
-40	74.4	200
-40	74.4	220
-40	74.4	240
-40	93	0
-40	93	20
-40	93	40
-40	93	60
-40	93	80
-40	93	100
-40	93	120
-40	93	140
-40	93	160
-40	93	180
-40	93	200
-40	93	220
-40	93	240
-40	111.6	0
-40	111.6	20
-40	111.6	40
-40	111.6	60
-40	111.6	80
-40	111.6	100
-40	111.6	120
-40	111.6	140
-40	111.6	160
-40	111.6	180
-40	111.6	200
-40	111.6	220
-40	111.6	240
-40	130.2	0
-40	130.2	20
-40	130.2	40
-40	130.2	60
-40	130.2	80
-40	130.2	100
-40	130.2	120
-40	130.2	140
-40	130.2	160
-40	130.2	180
-40	130.2	200
-40	130.2	220
-40	130.2	240
-40	148.8	0
-40	148.8	20
-40	148.8	40
-40	148.8	60
-40	148.8	80
-40	148.8	100
-40	148.8	120
-40	148.8	140
-40	148.8	160
-40	148.8	180
-40	148.8	200
-40	148.8	220
-40	148.8	240
-40	167.4	0
-40	167.4	20
-40	167.4	40
-40	167.4	60
-40	167.4	80
-40	167.4	100
-40	167.4	120
-40	167.4	140
-40	167.4	160
-40	167.4	180
-40	167.4	200
-40	167.4	220
-40	167.4	240
-40	186	0
-40	186	20
-40	186	40
-40	186	60
-40	186	80
-40	186	100
-40	186	120
-40	186	140
-40	186	160
-40	186	180
-40	186	200
-40	186	220
-40	186	240
-40	204.6	0
-40	204.6	20
-40	204.6	40
-40	204.6	60
-40	204.6	80
-40	204.6	100
-40	204.6	120
-40	204.6	140
-40	204.6	160
-40	204.6	180
-40	204.6	200
-40	204.6	220
-40	204.6	240
-40	223.2	0
-40	223.2	20
-40	223.2	40
-40	223.2	60
-40	223.2	80
-40	223.2	100
-40	223.2	120
-40	223.2	140
-40	223.2	160
-40	223.2	180
-40	223.2	200
-40	223.2	220
-40	223.2	240
-30	-37.2	20
-30	-37.2	30
-30	-37.2	40
-30	-27.9	20
-30	-27.9	30
-30	-27.9	40
-30	-18.6	20
-30	-18.6	30
-30	-18.6	40
-30	-9.3	20
-30	-9.3	30
-30	-9.3	40
-30	0	20
-30	0	30
-30	0	40
-30	9.3	20
-30	9.3	30
-30	9.3	40
-30	18.6	20
-30	18.6	30
-30	18.6	40
-30	27.9	20
-30	27.9	30
-30	27.9	40
-30	37.2	20
-30	37.2	30
-30	37.2	40
-20	-37.2	0
-20	-37.2	20
-20	-37.2	30
-20	-37.2	40
-20	-37.2	60
-20	-37.2	80
-20	-37.2	100
-20	-37.2	120
-20	-37.2	140
-20	-37.2	160
-20	-37.2	180
-20	-37.2	200
-20	-37.2	220
-20	-37.2	240
-20	-27.9	20
-20	-27.9	30
-20	-27.9	40
-20	-18.6	0
-20	-18.6	20
-20	-18.6	30
-20	-18.6	40
-20	-18.6	60
-20	-18.6	80
-20	-18.6	100
-20	-18.6	120
-20	-18.6	140
-20	-18.6	160
-20	-18.6	180
-20	-18.6	200
-20	-18.6	220
-20	-18.6	240
-20	-9.3	20
-20	-9.3	30
-20	-9.3	40
-20	0	0
-20	0	20
-20	0	30
-20	0	40
-20	0	60
-20	0	80
-20	0	100
-20	0	120
-20	0	140
-20	0	160
-20	0	180
-20	0	200
-20	0	220
-20	0	240
-20	9.3	20
-20	9.3	30
-20	9.3	40
-20	18.6	0
-20	18.6	20
-20	18.6	30
-20	18.6	40
-20	18.6	60
-20	18.6	80
-20	18.6	100
-20	18.6	120
-20	18.6	140
-20	18.6	160
-20	18.6	180
-20	18.6	200
-20	18.6	220
-20	18.6	240
-20	27.9	20
-20	27.9	30
-20	27.9	40
-20	37.2	0
-20	37.2	20
-20	37.2	30
-20	37.2	40
-20	37.2	60
-20	37.2	80
-20	37.2	100
-20	37.2	120
-20	37.2	140
-20	37.2	160
-20	37.2	180
-20	37.2	200
-20	37.2	220
-20	37.2	240
-20	55.8	0
-20	55.8	20
-20	55.8	40
-20	55.8	60
-20	55.8	80
-20	55.8	100
-20	55.8	120
-20	55.8	140
-20	55.8	160
-20	55.8	180
-20	55.8	200
-20	55.8	220
-20	55.8	240
-20	74.4	0
-20	74.4	20
-20	74.4	40
-20	74.4	60
-20	74.4	80
-20	74.4	100
-20	74.4	120
-20	74.4	140
-20	74.4	160
-20	74.4	180
-20	74.4	200
-20	74.4	220
-20	74.4	240
-20	93	0
-20	93	20
-20	93	40
-20	93	60
-20	93	80
-20	93	100
-20	93	120
-20	93	140
-20	93	160
-20	93	180
-20	93	200
-20	93	220
-20	93	240
-20	111.6	0
-20	111.6	20
-20	111.6	40
-20	111.6	60
-20	111.6	80
-20	111.6	100
-20	111.6	120
-20	111.6	140
-20	111.6	160
-20	111.6	180
-20	111.6	200
-20	111.6	220
-20	111.6	240
-20	130.2	0
-20	130.2	20
-20	130.2	40
-20	130.2	60
-20	130.2	80
-20	130.2	100
-20	130.2	120
-20	130.2	140
-20	130.2	160
-20	130.2	180
-20	130.2	200
-20	130.2	220
-20	130.2	240
-20	148.8	0
-20	148.8	20
-20	148.8	40
-20	148.8	60
-20	148.8	80
-20	148.8	100
-20	148.8	120
-20	148.8	140
-20	148.8	160
-20	148.8	180
-20	148.8	200
-20	148.8	220
-20	148.8	240
-20	167.4	0
-20	167.4	20
-20	167.4	40
-20	167.4	60
-20	167.4	80
-20	167.4	100
-20	167.4	120
-20	167.4	140
-20	167.4	160
-20	167.4	180
-20	167.4	200
-20	167.4	220
-20	167.4	240
-20	186	0
-20	186	20
-20	186	40
-20	186	60
-20	186	80
-20	186	100
-20	186	120
-20	186	140
-20	186	160
-20	186	180
-20	186	200
-20	186	220
-20	186	240
-20	204.6	0
-20	204.6	20
-20	204.6	40
-20	204.6	60
-20	204.6	80
-20	204.6	100
-20	204.6	120
-20	204.6	140
-20	204.6	160
-20	204.6	180
-20	204.6	200
-20	204.6	220
-20	204.6	240
-20	223.2	0
-20	223.2	20
-20	223.2	40
-20	223.2	60
-20	223.2	80
-20	223.2	100
-20	223.2	120
-20	223.2	140
-20	223.2	160
-20	223.2	180
-20	223.2	200
-20	223.2	220
-20	223.2	240
-10	-37.2	20
-10	-37.2	30
-10	-37.2	40
-10	-27.9	20
-10	-27.9	30
-10	-27.9	40
-10	-18.6	20
-10	-18.6	30
-10	-18.6	40
-10	-9.3	20
-10	-9.3	30
-10	-9.3	40
-10	0	20
-10	0	30
-10	0	40
-10	9.3	20
-10	9.3	30
-10	9.3	40
-10	18.6	20
-10	18.6	30
-10	18.6	40
-10	27.9	20
-10	27.9	30
-10	27.9	40
-10	37.2	20
-10	37.2	30
-10	37.2	40
0	-37.2	0
0	-37.2	20
0	-37.2	30
0	-37.2	40
0	-37.2	60
0	-37.2	80
0	-37.2	100
0	-37.2	120
0	-37.2	140
0	-37.2	160
0	-37.2	180
0	-37.2	200
0	-37.2	220
0	-37.2	240
0	-27.9	20
0	-27.9	30
0	-27.9	40
0	-18.6	0
0	-18.6	20
0	-18.6	30
0	-18.6	40
0	-18.6	60
0	-18.6	80
0	-18.6	100
0	-18.6	120
0	-18.6	140
0	-18.6	160
0	-18.6	180
0	-18.6	200
0	-18.6	220
0	-18.6	240
0	-9.3	20
0	-9.3	30
0	-9.3	40
0	0	0
0	0	20
0	0	30
0	0	40
0	0	60
0	0	80
0	0	100
0	0	120
0	0	140
0	0	160
0	0	180
0	0	200
0	0	220
0	0	240
0	9.3	20
0	9.3	30
0	9.3	40
0	18.6	0
0	18.6	20
0	18.6	30
0	18.6	40
0	18.6	60
0	18.6	80
0	18.6	100
0	18.6	120
0	18.6	140
0	18.6	160
0	18.6	180
0	18.6	200
0	18.6	220
0	18.6	240
0	27.9	20
0	27.9	30
0	27.9	40
0	37.2	0
0	37.2	10
0	37.2	20
0	37.2	30
0	37.2	40
0	37.2	60
0	37.2	80
0	37.2	90
0	37.2	100
0	37.2	120
0	37.2	140
0	37.2	160
0	37.2	180
0	37.2	200
0	37.2	220
0	37.2	240
0	46.5	0
0	46.5	10
0	46.5	20
0	46.5	30
0	46.5	40
0	46.5	80
0	46.5	90
0	46.5	100
0	55.8	0
0	55.8	10
0	55.8	20
0	55.8	30
0	55.8	40
0	55.8	60
0	55.8	70
0	55.8	80
0	55.8	90
0	55.8	100
0	55.8	120
0	55.8	140
0	55.8	160
0	55.8	180
0	55.8	200
0	55.8	220
0	55.8	240
0	65.1	60
0	65.1	70
0	65.1	80
0	65.1	90
0	65.1	100
0	74.4	0
0	74.4	20
0	74.4	40
0	74.4	50
0	74.4	60
0	74.4	70
0	74.4	80
0	74.4	90
0	74.4	100
0	74.4	120
0	74.4	140
0	74.4	160
0	74.4	180
0	74.4	200
0	74.4	220
0	74.4	240
0	83.7	40
0	83.7	50
0	83.7	60
0	83.7	70
0	83.7	80
0	83.7	90
0	83.7	100
0	93	0
0	93	20
0	93	30
0	93	40
0	93	50
0	93	60
0	93	70
0	93	80
0	93	90
0	93	100
0	93	120
0	93	140
0	93	160
0	93	180
0	93	200
0	93	220
0	93	240
0	102.3	20
0	102.3	30
0	102.3	40
0	102.3	50
0	102.3	60
0	102.3	70
0	102.3	80
0	102.3	90
0	102.3	100
0	111.6	0
0	111.6	20
0	111.6	30
0	111.6	40
0	111.6	50
0	111.6	60
0	111.6	70
0	111.6	80
0	111.6	90
0	111.6	100
0	111.6	120
0	111.6	140
0	111.6	160
0	111.6	180
0	111.6	200
0	111.6	220
0	111.6	240
0	120.9	20
0	120.9	30
0	120.9	40
0	120.9	60
0	120.9	70
0	120.9	80
0	120.9	90
0	120.9	100
0	130.2	0
0	130.2	10
0	130.2	20
0	130.2	30
0	130.2	40
0	130.2	60
0	130.2	70
0	130.2	80
0	130.2	90
0	130.2	100
0	130.2	120
0	130.2	140
0	130.2	160
0	130.2	180
0	130.2	200
0	130.2	220
0	130.2	240
0	139.5	0
0	139.5	10
0	139.5	20
0	139.5	30
0	139.5	40
0	139.5	60
0	139.5	70
0	139.5	80
0	139.5	90
0	139.5	100
0	148.8	0
0	148.8	10
0	148.8	20
0	148.8	30
0	148.8	40
0	148.8	60
0	148.8	70
0	148.8	80
0	148.8	90
0	148.8	100
0	148.8	120
0	148.8	140
0	148.8	160
0	148.8	180
0	148.8	200
0	148.8	220
0	148.8	240
0	167.4	0
0	167.4	20
0	167.4	40
0	167.4	60
0	167.4	80
0	167.4	100
0	167.4	120
0	167.4	140
0	167.4	160
0	167.4	180
0	167.4	200
0	167.4	220
0	167.4	240
0	186	0
0	186	20
0	186	40
0	186	60
0	186	80
0	186	100
0	186	120
0	186	140
0	186	160
0	186	180
0	186	200
0	186	220
0	186	240
0	204.6	0
0	204.6	20
0	204.6	40
0	204.6	60
0	204.6	80
0	204.6	100
0	204.6	120
0	204.6	140
0	204.6	160
0	204.6	180
0	204.6	200
0	204.6	220
0	204.6	240
0	223.2	0
0	223.2	20
0	223.2	40
0	223.2	60
0	223.2	80
0	223.2	100
0	223.2	120
0	223.2	140
0	223.2	160
0	223.2	180
0	223.2	200
0	223.2	220
0	223.2	240
10	-37.2	20
10	-37.2	30
10	-37.2	40
10	-27.9	20
10	-27.9	30
10	-27.9	40
10	-18.6	20
10	-18.6	30
10	-18.6	40
10	-9.3	20
10	-9.3	30
10	-9.3	40
10	0	20
10	0	30
10	0	40
10	9.3	20
10	9.3	30
10	9.3	40
10	18.6	20
10	18.6	30
10	18.6	40
10	27.9	20
10	27.9	30
10	27.9	40
10	37.2	0
10	37.2	10
10	37.2	20
10	37.2	30
10	37.2	40
10	37.2	80
10	37.2	90
10	37.2	100
10	46.5	0
10	46.5	10
10	46.5	20
10	46.5	30
10	46.5	40
10	46.5	80
10	46.5	90
10	46.5	100
10	55.8	0
10	55.8	10
10	55.8	20
10	55.8	30
10	55.8	40
10	55.8	60
10	55.8	70
10	55.8	80
10	55.8	90
10	55.8	100
10	65.1	60
10	65.1	70
10	65.1	80
10	65.1	90
10	65.1	100
10	74.4	40
10	74.4	50
10	74.4	60
10	74.4	70
10	74.4	80
10	74.4	90
10	74.4	100
10	83.7	40
10	83.7	50
10	83.7	60
10	83.7	70
10	83.7	80
10	83.7	90
10	83.7	100
10	93	20
10	93	30
10	93	40
10	93	50
10	93	60
10	93	70
10	93	80
10	93	90
10	93	100
10	102.3	20
10	102.3	30
10	102.3	40
[...]
CELL_DATA	5509
SCALARS density double 1
LOOKUP_TABLE table0
101.554
286.782
349.46
287.366
350.69
286.395
349.711
287.368
351.318
499.2
531.105
446.412
341.33
283.117
283.257
309.276
328.335
329.272
334.403
102.109
288.082
352.615
288.234
354.578
288.777
353.89
289.725
356.575
498.317
522.758
432.05
323.415
263.644
263.86
291.531
313.145
316.97
323.116
105.316
287.153
355.877
284.38
356.112
289.194
358.383
286.672
358.701
488.298
498.935
398.262
284.424
223.545
225.307
257.102
284.19
293.852
302.163
105.986
280.315
355.279
275.867
355.557
282.931
357.499
278.656
357.022
464.174
456.987
345.508
226.561
166.537
172.029
210.402
245.43
263.228
274.622
98.4436
328.004
431.306
405.297
283.133
159.013
101.299
112.037
158.379
202.583
229.578
244.468
86.7562
322.228
406.793
362.202
226.728
96.21
39.936
55.4221
109.198
162.063
197.755
215.899
79.6279
336.497
407.867
342.599
191.737
52.1927
-5.84646
11.6184
70.2943
129.611
172.043
192.591
88.1743
367.082
429.825
348.617
183.593
33.9273
-29.4133
-13.662
46.3628
108.945
155.273
177.006
106.363
386.606
452.391
365.634
194.206
38.0284
-31.7205
-20.2122
38.153
100.954
148.271
169.966
113.329
360.563
447.047
373.164
208.531
53.9102
-19.9634
-12.6746
42.6954
103.736
149.833
170.589
111.101
314.084
416.944
365.509
217.549
71.1035
-3.2229
1.93182
54.7438
113.429
157.203
176.622
121.844
294.513
391.53
351.937
219.577
83.1667
11.4807
16.9724
68.6035
125.425
166.854
185.025
145.831
295.017
380.468
341.972
217.904
88.6729
20.443
27.7019
79.5041
135.468
175.299
192.652
153.337
294.61
377.776
338.869
216.023
88.2618
21.1144
29.2558
81.5428
137.628
177.266
194.546
96.992
285.016
349.693
286.685
351.93
281.943
348.766
284.375
351.685
496.151
525.974
437.277
328.576
267.797
266.646
293.073
313.796
317.065
323.015
100.588
289.452
355.671
292.115
359.734
288.929
356.851
294.267
362.834
497.421
517.913
421.301
308.056
245.756
244.761
273.108
296.73
303.251
310.437
103.088
292.625
362.515
290.033
362.804
296.565
367.196
293.193
367.675
487.105
491.281
382.073
262.416
199.809
201.108
234.454
264.389
277.516
287.307
106.306
286.106
360.252
280.997
356.553
287.536
363.219
280.151
355.651
453.693
438.755
317.98
193.097
133.424
140.348
181.96
221.208
243.597
257.091
114.624
314.653
401.916
368.227
239.448
110.431
56.2364
71.4333
123.388
173.562
206.478
224.179
65.8646
297.121
359.955
305.608
164.184
32.2148
-17.1026
6.23205
68.1232
128.704
171.582
193.203
47.3247
322.847
353.699
271.18
116.151
-22.4636
-71.3943
-43.6344
24.9557
93.2229
143.735
168.228
69.0797
357.918
374.856
277.613
107.261
-42.5581
-97.145
-70.7765
-0.407336
71.4566
126.148
151.986
119.698
392.138
416.872
310.172
128.808
-31.4158
-94.9682
-74.6515
-7.00457
64.4501
119.754
145.375
109.767
360.486
426.499
334.528
156.959
-3.81448
-74.4066
-61.1219
1.55677
69.9549
123.156
147.386
95.7402
287.849
393.097
337.104
179.435
26.0099
-47.8841
-39.2007
18.866
83.4069
133.167
155.463
117.051
266.028
364.309
325.183
188.238
47.1709
-24.9463
-17.3578
37.9942
99.3631
145.705
166.154
159.798
275.888
356.982
316.637
189.656
57.9434
-10.4333
-1.55606
53.1401
112.776
156.707
175.855
164.025
277.569
356.623
314.301
188.211
58.3977
-8.64603
1.19337
56.3022
115.904
159.458
178.405
87.5176
276.196
346.29
278.912
349.661
267.894
342.17
270.192
345.642
483.354
510.364
415.534
301.297
237.048
234.317
262.107
286.356
294.263
301.915
91.8919
284.509
356.042
292.058
364.086
275.33
352.745
283.093
362.691
486.789
501.98
395.998
275.615
210.261
208.044
238.358
266.171
277.992
287.262
118.84
296.688
370.87
292.849
372.823
289.668
373.133
290.141
380.184
478.596
470.612
346.281
217.738
153.82
155.495
192.517
228.187
247.97
260.592
109.995
283.186
366.549
261.977
349.298
285.996
378.306
260.831
359.45
434.941
399.694
259.868
127.787
70.7638
81.7223
130.17
177.628
208.641
226.011
78.9914
137.961
45.6679
83.3635
-40.3928
7.86275
-68.7295
-29.0855
224.149
325.469
189.728
293.654
207.143
322.876
174.025
284.103
349.012
291.022
218.797
213.517
163.952
156.933
171.108
163.206
109.089
99.5008
17.615
-27.8247
-2.80402
60.4242
121.958
165.821
188.597
67.5116
200.206
254.837
260.868
258.591
214.366
207.498
190.686
181.709
134.44
121.774
115.835
108.138
70.2782
62.8465
47.7906
37.6819
-7.97997
-17.3819
-89.6749
-123.135
-83.2677
-5.30633
69.8132
125.868
153.695
76.3653
224.209
268.774
275.997
257.233
263.902
182.828
176.727
163.799
158.697
186.485
178.044
171.083
161.88
91.42
77.8208
67.7514
54.3594
38.0604
30.9251
17.4748
10.272
-51.0364
-59.8079
-77.1763
-85.6561
-165.476
-193.554
-144.181
-55.9376
29.2134
94.5084
126.018
74.4783
252.463
281.807
231.21
291.045
170.566
184.038
118.66
191.255
258.111
273.598
265.53
295.539
158.953
164.912
176.862
199.506
174.231
164.525
194.545
183.75
68.7557
55.3353
94.8159
79.6903
13.0056
4.95298
23.0762
13.4726
-83.3357
-92.7125
-70.351
-81.841
-190.027
-224.05
-174.98
-83.9595
5.56485
75.5925
108.74
125.368
250.273
322.962
302.975
366.632
142.813
242.06
239.652
319.535
301.39
223.558
210.431
258.202
244.587
139.115
120.417
189.289
168.185
41.9814
30.4081
68.1432
55.2948
-42.9734
-57.2681
-7.71189
-24.446
-165.932
-214.062
-174.338
-87.8743
0.224831
70.2532
102.899
87.8802
187.049
62.8811
151.633
88.2838
183.712
73.8436
160.057
313.088
379.391
286.993
367.319
292.27
367.923
280.623
367.365
376.984
281.107
270.273
291.327
290.745
229.86
210.932
252.428
244.315
90.2056
77.9069
105.699
97.0908
26.7941
9.774
55.2009
41.5383
-116.697
-177.133
-150.084
-72.2791
10.4055
76.788
107.277
78.2652
258.573
360.84
288.45
106.295
-58.7099
-131.897
-114.759
-45.5975
30.3713
91.2958
118.813
80.1487
209.354
321.94
279.738
131.052
-19.0192
-92.8929
-80.2193
-16.9904
53.2339
108.754
133.359
189.235
209.505
308.795
270.044
137.907
1.70005
-67.3734
-54.7909
5.83473
72.5277
124.093
146.52
185.288
222.475
310.684
267.241
136.635
3.68634
-63.2455
-49.679
11.0653
77.3471
128.153
150.141
71.9721
257.78
336.661
259.658
340.075
247.743
330.532
249.636
333.761
460.388
483.067
382.092
262.169
194.901
190.782
220.744
249.861
264.041
273.999
70.4594
264.408
347.725
272.83
359.393
255.376
342.181
264.792
354.084
465.585
472.961
357.545
229.79
162.228
159.181
192.47
225.991
244.894
256.927
104.64
283.454
374.382
295.62
389.579
278.25
371.626
298.34
391.365
465.368
434.499
293.805
156.331
92.868
95.8208
138.012
181.311
209.833
226.112
184.98
318.377
399.801
328.178
390.857
346.129
413.691
392.627
414.044
429.885
339.215
250.361
242.195
187.352
176.538
211.994
202.037
142.626
129.655
39.1857
-10.7981
6.12437
63.7857
121.962
164.123
186.406
213.239
301.853
351.427
270.667
291.715
388.177
364.395
317.85
281.244
375.718
370.572
298.36
284.749
345.03
329.301
253.059
228.733
281.996
271.428
195.03
179.316
224.113
207.341
125.575
104.613
118.87
105.536
43.6287
30.0082
61.2675
45.763
-29.2324
-44.2367
-17.7225
-20.0895
-88.5523
-91.1947
-76.6087
-80.0571
-153.509
-156.985
-136.302
-97.8123
-19.563
56.68
114.559
143.7
106.112
244.128
216.208
179.68
146.892
229.234
181.776
150.386
89.0149
222.957
206.638
140.494
121.065
146.448
117.709
37.6405
6.22588
112.266
95.2341
34.2803
17.5927
19.075
-1.32015
-84.2406
-100.858
-32.6314
-45.2535
-102.676
-113.232
-122.325
-134.735
-209.027
-217.427
-153.221
-154.911
-214.385
-214.071
-229.219
-231.774
-298.439
-298.94
-260.128
-197.644
-98.2764
-4.26311
68.6079
104.19
78.0522
165.462
116.682
151.523
81.7916
106.651
11.9024
46.4064
-61.5601
79.2326
58.9009
36.8572
21.972
-58.9468
-87.8854
-132.061
-148.913
-28.3049
-42.9626
-65.2729
-77.4527
-170.563
-181.311
-225.025
-230.153
-158.279
-166.698
-192.623
-199.892
-279.252
-283.571
-323.893
-325.742
-261.073
-259.272
-294.007
-291.349
-353.989
-353.29
-391.411
-389.924
-352.544
-273.032
-158.372
-51.1363
33.0677
73.3552
102.654
98.22
61.1868
31.225
75.3379
-41.2255
-109.698
-76.9661
-73.7721
24.2921
22.4826
60.2169
68.4948
-157.412
-157.479
-102.624
-99.2672
-68.1379
-79.7409
-34.3332
-49.6444
-234.433
-238.217
-193.222
-203.657
-201.515
-209.653
-185.166
-196.521
-337.007
-339.538
-317.976
-324.907
-307.735
-305.586
-303.557
-303.138
-407.8
-406.984
-402.954
-404.066
-390.712
-309.194
-189.989
-77.1885
12.5778
54.9096
106.438
-37.7759
129.764
141.456
110.954
4.60469
122.283
218.197
83.2074
167.748
238.216
303.469
69.9958
93.0426
342.153
318.559
153.667
153.346
279.465
260.416
39.0581
18.7829
214.537
161.077
28.3823
5.22695
101.869
71.0652
-110.175
-134.768
-9.0215
-48.6442
-148.744
-164.939
-101.062
-122.038
-272.483
-286.591
-211.251
-232.995
-285.036
-287.282
-254.348
-259.584
-379.948
-383.858
-344.286
-351.391
-371.673
-303.41
-190.824
-80.5652
8.53691
50.0612
111.207
194.697
87.6941
167.655
120.614
271.847
91.5886
179.109
321.323
391.247
301.39
397.341
462.426
455.437
390.844
460.855
356.629
330.34
381.579
375.14
338.129
276.066
377.854
343.144
163.958
132.158
199.142
177.408
81.4414
35.2812
141.816
104.22
-52.0818
-75.7607
-8.88062
-31.9928
-146.566
-173.693
-88.1897
-116.718
-221.363
-229.423
-191.266
-202.506
-302.506
-312.301
-259.174
-271.919
-313.641
-265.7
-166.555
-64.6309
18.9031
57.3546
86.1253
248.192
354.54
211.874
304.475
290.644
400.661
235.138
337.875
366.529
214.895
27.2088
7.80488
50.1699
36.6198
-41.0005
-66.2307
-6.33043
-25.3451
-168.685
-243.465
-213.037
-128.049
-36.5562
38.9282
73.1261
88.3488
185.739
301.921
226.052
57.5339
-103.137
-182.512
-161.784
-87.3
-5.05069
62.4355
92.3771
218.973
126.765
252.919
210.396
70.3808
-70.5634
-141.847
-123.548
-54.5326
21.6173
83.1006
109.74
220.857
138.005
245.433
202.658
68.054
-67.2393
-134.503
-115.262
-46.6103
28.5548
88.7571
114.644
54.8979
277.959
434.511
450.285
343.71
218.555
148.608
142.971
175.143
209.439
230.423
242.821
53.406
291.266
438.781
437.554
314.425
179.887
110.455
106.323
142.544
182.027
208.503
223.408
88.5025
288.982
429.861
389.358
236.375
90.8206
28.9114
32.6143
79.7894
130.878
168.563
188.569
99.6899
352.868
366.883
341.623
329.604
263.946
245.427
309.259
294.823
226.146
205.021
176.303
163.21
96.2716
79.9134
139.917
124.698
52.801
34.2639
25.3293
20.126
-51.2413
-57.445
-13.2069
-19.1857
-94.1144
-101.246
-94.5552
-72.5389
-5.96765
62.9984
116.665
143.888
77.3864
339.758
314.459
200.24
203.898
216.963
230.247
66.6403
105.14
293.609
280.808
177.614
155.477
227.406
224.872
95.1798
82.9801
167.482
145.002
49.4343
26.0984
115.907
91.1691
-20.1417
-44.3259
2.05268
-15.3932
-103.845
-119.373
-52.4137
-71.394
-172.21
-188.164
-132.794
-139.605
-219.243
-224.549
-184.355
-191.993
-280.395
-286.433
-247.128
-195.711
-102.747
-11.6724
60.5502
96.0579
41.5904
96.7939
84.2111
70.4286
-22.5498
-22.2139
-27.8454
-37.223
-156.003
43.1103
15.1708
-95.6495
-127.448
-62.9014
-82.411
-232.801
-255.836
-81.3711
-101.296
-211.583
-224.103
-173.532
-192.106
-329.545
-337.53
-214.133
-225.091
-318.324
-322.986
-298.436
-308.133
-419.273
-420.754
-305.284
-309.323
-383.754
-386.089
-375.994
-381.373
-463.424
-469.539
-400.942
-315.269
-194.468
-81.3453
8.7661
52.1079
84.5941
46.2626
70.8529
-38.6587
77.4714
10.2636
48.6249
-137.482
14.1856
-135.655
-116.429
-260.975
-132.987
-312.864
-339.272
-494.69
-229.268
-254.93
-339.575
-344.509
-406.099
-417.347
-557.075
-538.128
-324.113
-326.543
-399.427
-392.562
-468.253
-462.359
-566.008
-547.421
-404.332
-402.742
-460.769
-455.185
-520.768
-514.385
-589.415
-577.985
-447.201
-449.344
-489.012
-490.739
-534.592
-545.089
-576.791
-587.984
-518.18
-406.064
-264.301
-134.525
-30.839
18.2776
54.3054
-143.515
11.5569
-222.079
-19.0707
-359.156
-113.833
-512.765
-263.527
-345.514
-278.394
-291.457
-555.342
-623.214
-595.852
-579.519
-385.36
-367.686
-318.03
-302.945
-631.017
-582.067
-568.985
-522.088
-419.247
-409.645
-374.544
-373.811
-600.344
-576.979
-559.232
-544.409
-479.768
-474.488
-459.723
-459.741
-615.563
-604.268
-596.665
-591.014
-508.284
-510.918
-503.059
-507.702
-600.265
-612.906
-595.148
-609.486
-566.85
-448.75
-299.914
-163.045
-52.8377
-1.1851
-5.46621
-12.5696
267.558
692.996
-144.251
-265.686
243.361
611.888
13.4477
-41.2081
495.701
290.105
-261.059
-299.399
323.404
92.1531
-130.108
-157.542
104.562
22.8912
-361.281
-364.138
-87.3169
-156.742
-274.304
-293.515
-146.345
-188.374
-450.735
-457.589
-303.413
-337.495
-406.614
-415.828
-332.724
-352.28
-538.733
-543.112
-455.328
-471.46
-476.277
-483.573
-436.559
-446.625
-562.741
-578.454
-524.141
-541.041
-540.291
-438.665
-297.964
-164.485
-55.5014
-4.89802
341.678
802.934
99.2082
365.052
335.794
781.756
88.5291
375.873
668.277
484.413
526.949
499.01
574.571
349.001
483.031
416.599
276.535
177.719
340.682
273.614
132.709
34.4941
244.295
170.907
-25.2117
-81.6937
66.395
9.32598
-155.652
-210.34
-35.7835
-97.2233
-252.396
-280.09
-177.847
-209.375
-361.483
-387.365
-270.629
-302.222
-388.396
-399.729
-334.476
-347.414
-476.398
-489.591
-413.197
-426.555
-460.662
-387.584
-265.014
-142.707
-41.1715
5.4538
79.8453
368.167
437.601
289.059
376.764
383.558
415.938
325.465
380.378
345.366
128.447
79.3689
158.886
127.568
47.4036
-8.00167
96.2113
57.8235
-116.87
-147.442
-73.97
-99.5007
-192.425
-224.896
-131.297
-159.637
-278.998
-291.146
-233.325
-247.052
-350.368
-364.447
-293.809
-309.985
-363.568
-316.882
-214.32
-106.273
-15.4544
25.608
94.0275
279.706
300.659
167.507
-36.6816
-186.229
-278.23
-247.762
-160.829
-65.7455
14.2856
49.7063
274.222
64.6427
190.379
144.129
-3.42337
-145.102
-220.54
-195.595
-117.512
-31.3308
40.4411
71.3808
265.134
26.1579
157.308
127.089
-6.1986
-141.24
-209.562
-183.816
-106.713
-22.1709
47.7367
77.5906
38.7304
267.467
414.523
421.977
309.682
179.594
106.275
98.3319
131.801
170.444
197.568
212.032
37.2054
286.634
423.484
410.078
278.254
137.334
64.5198
58.0651
95.9485
140.28
173.441
190.726
77.6309
272.683
417.534
359.106
237.705
228.151
182.835
169.431
220.34
209.423
164.885
149.55
38.5667
-25.339
-23.2118
26.8757
84.0762
129.613
152.639
64.1281
227.317
326.645
205.327
286.266
240.019
330.293
196.662
297.311
359.663
388.136
296.346
313.797
363.67
397.07
309.599
329.763
290
272.5
201.012
175.942
283.13
259.11
193.827
160.619
110.846
92.156
17.9712
-3.58726
90.6546
69.115
-5.74546
-30.8706
-45.1197
-52.698
-132.247
-141.267
-72.6922
-81.1825
-163.137
-173.349
-162.93
-139.937
-67.7698
9.51235
72.7941
103.964
71.919
128.482
185.434
4.77222
52.2991
97.6387
212.761
-3.6829
86.8872
194.818
196.205
49.6891
40.0601
218.597
206.795
71.8321
43.5565
81.7378
52.4681
-67.5607
-96.15
71.935
32.7145
-83.6574
-123.508
-95.7841
-117.441
-226.616
-244.565
-124.673
-150.327
-262.543
-284.583
-229.404
-238.972
-332.963
-341.257
-264.759
-275.728
-373.155
-383.233
-335.827
-277.865
-175.028
-72.5896
11.4899
52.0597
58.5733
-76.4265
-94.8179
-149.119
-260.237
-73.6635
-72.0013
-190.817
-273.575
-128.765
-146.202
-330.265
-347.287
-120.962
-156.578
-349.037
-378.494
-238.877
-260.737
-416.523
-425.795
-265.814
-299.275
-457.957
-478.74
-365.891
-376.517
-500.762
-502.221
-410.613
-425.178
-555.33
-560.902
-436.021
-445.361
-530.831
-546.96
-480.092
-492.002
-574.232
-594.145
-513.911
-413.148
-277.097
-149.195
-44.9123
4.64531
36.5518
-114.458
-31.9099
-343.647
-29.5025
-249.739
-94.7181
-452.194
-316.001
-467.236
-572.646
-693.016
-402.032
-517.75
-655.828
-759.95
-541.952
-540.014
-728.768
-690.204
-590.02
-595.015
-799.546
-767.651
-577.97
-571.305
-696.346
-675.78
-634.866
-640.896
-766.968
-763.338
-615.679
-609.502
-695.304
-684.825
-679.823
-679.402
-767.104
-766.531
-737.479
-653.948
-516.946
-354.902
-207.397
-87.7123
-31.4406
-110.629
-591.1
-196.569
-751.887
-127.12
-605.993
-135.681
-652.276
-811.894
-851.414
-877.767
-835.468
-849.914
-918.714
-885.676
-917.247
-830.223
-757.495
-788.955
-712.981
-918.304
-855.192
-898.999
-830.044
-747.18
-720.875
-716.906
-695.968
-831.817
-827.334
-815.944
-812.422
-728.564
-719.649
-712.475
-709.194
-804.602
-811.824
-791.645
-804.551
-793.087
-714.253
-565.993
-394.008
-237.844
-110.762
-51.5101
-234.14
-643.795
-109.867
-189.932
-123.182
-550.005
-57.9648
-306.384
-637.69
-596.363
-178.987
-231.929
-714.502
-733.25
-403.216
-436.201
-596.137
-560.842
-320.079
-345.539
-737.434
-695.416
-486.428
-488.729
-612.482
-608.049
-457.1
-478.386
-730.783
-727.114
-577.581
-592.03
-652.655
-658.301
-565.513
-581.81
-729.262
-747.91
-649.091
-674.7
-710.027
-684.074
-553.485
-389.999
-237.563
-112.051
-53.9936
5.01032
75.5264
32.7495
68.6978
8.98309
-106.881
33.0702
-48.4144
131.911
61.6283
202.826
204.69
-130.895
-152.32
16.3292
44.7759
-67.5536
-129.856
102.341
42.8767
-228.535
-264.877
-21.3956
-68.5662
-290.355
-334.957
-145.046
-201.726
-400.833
-437.332
-236.247
-287.998
-463.372
-487.81
-358.504
-388.86
-549.066
-575.3
-433.544
-463.339
-569.763
-587.751
-488.644
-504.829
-623.703
-649.047
-545.337
-567.829
-587.6
-492.012
-349.915
-210.735
-94.1469
-40.7642
55.3938
227.882
201.303
166.024
252.778
239.475
121.308
79.5606
201.465
175.549
-37.2366
-92.8663
29.5253
-13.1122
-105.05
-160.591
-15.5066
-61.8904
-263.49
-296.147
-183.866
-214.29
-324.919
-357.455
-232.858
-264.581
-416.585
-432.746
-354.215
-373.046
-471.432
-489.688
-398.99
-418.843
-467.788
-406.249
-288.85
-167.03
-63.3545
-16.6204
109.139
294.69
276.296
98.5254
-116.92
-140.417
-73.1452
-90.2964
-159.978
-186.607
-109.32
-129.735
-264.48
-360.722
-321.554
-224.251
-118.588
-28.0572
11.8105
287.723
-126.087
106.511
83.3803
-58.3439
-208.592
-287.188
-256.861
-171.577
-77.3265
2.95334
37.3069
293.831
-176.601
50.357
58.191
-64.5916
-203.035
-272.682
-241.858
-158.19
-66.1908
11.6897
44.6647
23.455
254.782
401.39
402.964
285.855
151.39
73.9552
62.7032
95.9869
137.33
168.994
184.778
17.1441
286.636
420.406
394.814
254.643
108.336
31.0937
20.9023
58.5201
105.653
143.563
162.304
80.5376
343.982
451.624
353.871
207.804
195.197
152.19
134.666
197.941
184.718
142.97
124.453
6.43136
-61.6548
-63.7676
-13.7467
46.6584
97.4475
122.23
50.4138
124.197
43.922
109.66
55.2867
217.874
51.1055
296.235
338.043
379.413
342.175
390.555
446.99
430.755
542.017
480.363
446.011
285.785
253.358
200.334
156.682
287.908
251.266
207.447
157.812
77.7057
53.3109
-19.3418
-48.2243
69.7243
43.6774
-25.704
-57.0906
-92.1277
-101.969
-185.268
-197.188
-105.457
-116.066
-198.866
-211.859
-204.585
-185.817
-112.971
-31.5737
37.782
71.1704
81.0224
296.914
346.159
224.857
240.252
610.641
481.097
572.853
401.385
302.74
246.646
158.163
84.6456
374.864
282.855
242.105
129.274
81.5359
29.3125
-73.1614
-128.518
95.4277
34.4486
-52.8993
-119.794
-139.688
-169.957
-280.123
-307.54
-144.28
-178.058
-283.185
-315.244
-289.353
-302.307
-400.537
-412.974
-303.137
-317.519
-414.563
-428.855
-386.146
-330.872
-225.675
-117.75
-26.4592
16.9215
66.8914
118
66.884
-62.3899
-168.627
392.366
222.761
132.068
-30.1716
-41.9616
-119.795
-287.229
-352.179
46.9847
-69.2063
-198.987
-299.226
-258
-308.72
-455.669
-495.562
-233.019
-297.748
-427.917
-484.159
-432.035
-452.751
-581.484
-594.625
-434.146
-460.747
-583.302
-603.776
-510.892
-525.743
-611.005
-634.785
-525.136
-542.242
-624.6
-650.743
-576.127
-474.285
-333.233
-198.096
-85.4125
-32.3803
-8.2787
-180.436
-48.5913
-315.368
24.8447
-37.283
3.20752
-120.656
-298.519
-434.954
-522.696
-673.45
-122.531
-300.184
-321.031
-525.641
-544.333
-581.489
-762.33
-766.553
-455.405
-528.236
-669.48
-714.671
-637.861
-667.745
-768.416
-802.788
-608.801
-657.615
-740.137
-795.021
-710.53
-721.364
-799.64
-820.076
-712.396
-732.326
-801.215
-832.181
-815.789
-728.91
-585.434
-415.365
-258.9
-129.799
-69.5236
-59.1065
-380.352
-43.7
-356.079
0.245636
-144.467
4.8564
-119.738
-658.382
-816.509
-658.512
-817.037
-425.289
-654.162
-417.824
-656.572
-887.2
-867.954
-883.254
-859.557
-792.982
-821.173
-798.004
-823.952
-909.35
-902.368
-886.711
-798.054
-638.726
-456.355
-290.08
-153.045
-89.5048
-20.4867
-260.627
3.20024
-134.773
15.1991
-59.9391
21.655
-2.65589
-524.693
-673.423
-311.582
-436.834
-314.151
-539.758
-155.756
-343.782
-751.336
-744.422
-532.365
-554.355
-687.951
-725.888
-496.444
-553.979
-798.41
-806.164
-647.611
-665.772
-809.242
-828.674
-665.174
-691.784
-781.468
-813.59
-769.204
-625.615
-450.957
-288.264
-152.954
-90.6609
59.8064
-100.821
-183.519
68.032
35.7761
19.0367
-118.936
197.897
97.8135
-287.847