# vtk DataFile Version 3.0
Gravity inversion using rectangular prisms
ASCII
DATASET UNSTRUCTURED_GRID

POINTS	3315	double
-40	-37.2	0
-40	-37.2	20
-40	-37.2	40
-40	-37.2	60
-40	-37.2	80
-40	-37.2	100
-40	-37.2	120
-40	-37.2	140
-40	-37.2	160
-40	-37.2	180
-40	-37.2	200
-40	-37.2	220
-40	-37.2	240
-40	-18.6	0
-40	-18.6	20
-40	-18.6	40
-40	-18.6	60
-40	-18.6	80
-40	-18.6	100
-40	-18.6	120
-40	-18.6	140
-40	-18.6	160
-40	-18.6	180
-40	-18.6	200
-40	-18.6	220
-40	-18.6	240
-40	0	0
-40	0	20
-40	0	40
-40	0	60
-40	0	80
-40	0	100
-40	0	120
-40	0	140
-40	0	160
-40	0	180
-40	0	200
-40	0	220
-40	0	240
-40	18.6	0
-40	18.6	20
-40	18.6	40
-40	18.6	60
-40	18.6	80
-40	18.6	100
-40	18.6	120
-40	18.6	140
-40	18.6	160
-40	18.6	180
-40	18.6	200
-40	18.6	220
-40	18.6	240
-40	37.2	0
-40	37.2	20
-40	37.2	40
-40	37.2	60
-40	37.2	80
-40	37.2	100
-40	37.2	120
-40	37.2	140
-40	37.2	160
-40	37.2	180
-40	37.2	200
-40	37.2	220
-40	37.2	240
-40	55.8	0
-40	55.8	20
-40	55.8	40
-40	55.8	60
-40	55.8	80
-40	55.8	100
-40	55.8	120
-40	55.8	140
-40	55.8	160
-40	55.8	180
-40	55.8	200
-40	55.8	220
-40	55.8	240
-40	74.4	0
-40	74.4	20
-40	74.4	40
-40	74.4	60
-40	74.4	80
-40	74.4	100
-40	74.4	120
-40	74.4	140
-40	74.4	160
-40	74.4	180
-40	74.4	200
-40	74.4	220
-40	74.4	240
-40	93	0
-40	93	20
-40	93	40
-40	93	60
-40	93	80
-40	93	100
-40	93	120
-40	93	140
-40	93	160
-40	93	180
-40	93	200
-40	93	220
-40	93	240
-40	111.6	0
-40	111.6	20
-40	111.6	40
-40	111.6	60
-40	111.6	80
-40	111.6	100
-40	111.6	120
-40	111.6	140
-40	111.6	160
-40	111.6	180
-40	111.6	200
-40	111.6	220
-40	111.6	240
-40	130.2	0
-40	130.2	20
-40	130.2	40
-40	130.2	60
-40	130.2	80
-40	130.2	100
-40	130.2	120
-40	130.2	140
-40	130.2	160
-40	130.2	180
-40	130.2	200
-40	130.2	220
-40	130.2	240
-40	148.8	0
-40	148.8	20
-40	148.8	40
-40	148.8	60
-40	148.8	80
-40	148.8	100
-40	148.8	120
-40	148.8	140
-40	148.8	160
-40	148.8	180
-40	148.8	200
-40	148.8	220
-40	148.8	240
-40	167.4	0
-40	167.4	20
-40	167.4	40
-40	167.4	60
-40	167.4	80
-40	167.4	100
-40	167.4	120
-40	167.4	140
-40	167.4	160
-40	167.4	180
-40	167.4	200
-40	167.4	220
-40	167.4	240
-40	186	0
-40	186	20
-40	186	40
-40	186	60
-40	186	80
-40	186	100
-40	186	120
-40	186	140
-40	186	160
-40	186	180
-40	186	200
-40	186	220
-40	186	240
-40	204.6	0
-40	204.6	20
-40	204.6	40
-40	204.6	60
-40	204.6	80
-40	204.6	100
-40	204.6	120
-40	204.6	140
-40	204.6	160
-40	204.6	180
-40	204.6	200
-40	204.6	220
-40	204.6	240
-40	223.2	0
-40	223.2	20
-40	223.2	40
-40	223.2	60
-40	223.2	80
-40	223.2	100
-40	223.2	120
-40	223.2	140
-40	223.2	160
-40	223.2	180
-40	223.2	200
-40	223.2	220
-40	223.2	240
-20	-37.2	0
-20	-37.2	20
-20	-37.2	40
-20	-37.2	60
-20	-37.2	80
-20	-37.2	100
-20	-37.2	120
-20	-37.2	140
-20	-37.2	160
-20	-37.2	180
-20	-37.2	200
-20	-37.2	220
-20	-37.2	240
-20	-18.6	0
-20	-18.6	20
-20	-18.6	40
-20	-18.6	60
-20	-18.6	80
-20	-18.6	100
-20	-18.6	120
-20	-18.6	140
-20	-18.6	160
-20	-18.6	180
-20	-18.6	200
-20	-18.6	220
-20	-18.6	240
-20	0	0
-20	0	20
-20	0	40
-20	0	60
-20	0	80
-20	0	100
-20	0	120
-20	0	140
-20	0	160
-20	0	180
-20	0	200
-20	0	220
-20	0	240
-20	18.6	0
-20	18.6	20
-20	18.6	40
-20	18.6	60
-20	18.6	80
-20	18.6	100
-20	18.6	120
-20	18.6	140
-20	18.6	160
-20	18.6	180
-20	18.6	200
-20	18.6	220
-20	18.6	240
-20	37.2	0
-20	37.2	20
-20	37.2	40
-20	37.2	60
-20	37.2	80
-20	37.2	100
-20	37.2	120
-20	37.2	140
-20	37.2	160
-20	37.2	180
-20	37.2	200
-20	37.2	220
-20	37.2	240
-20	55.8	0
-20	55.8	20
-20	55.8	40
-20	55.8	60
-20	55.8	80
-20	55.8	100
-20	55.8	120
-20	55.8	140
-20	55.8	160
-20	55.8	180
-20	55.8	200
-20	55.8	220
-20	55.8	240
-20	74.4	0
-20	74.4	20
-20	74.4	40
-20	74.4	60
-20	74.4	80
-20	74.4	100
-20	74.4	120
-20	74.4	140
-20	74.4	160
-20	74.4	180
-20	74.4	200
-20	74.4	220
-20	74.4	240
-20	93	0
-20	93	20
-20	93	40
-20	93	60
-20	93	80
-20	93	100
-20	93	120
-20	93	140
-20	93	160
-20	93	180
-20	93	200
-20	93	220
-20	93	240
-20	111.6	0
-20	111.6	20
-20	111.6	40
-20	111.6	60
-20	111.6	80
-20	111.6	100
-20	111.6	120
-20	111.6	140
-20	111.6	160
-20	111.6	180
-20	111.6	200
-20	111.6	220
-20	111.6	240
-20	130.2	0
-20	130.2	20
-20	130.2	40
-20	130.2	60
-20	130.2	80
-20	130.2	100
-20	130.2	120
-20	130.2	140
-20	130.2	160
-20	130.2	180
-20	130.2	200
-20	130.2	220
-20	130.2	240
-20	148.8	0
-20	148.8	20
-20	148.8	40
-20	148.8	60
-20	148.8	80
-20	148.8	100
-20	148.8	120
-20	148.8	140
-20	148.8	160
-20	148.8	180
-20	148.8	200
-20	148.8	220
-20	148.8	240
-20	167.4	0
-20	167.4	20
-20	167.4	40
-20	167.4	60
-20	167.4	80
-20	167.4	100
-20	167.4	120
-20	167.4	140
-20	167.4	160
-20	167.4	180
-20	167.4	200
-20	167.4	220
-20	167.4	240
-20	186	0
-20	186	20
-20	186	40
-20	186	60
-20	186	80
-20	186	100
-20	186	120
-20	186	140
-20	186	160
-20	186	180
-20	186	200
-20	186	220
-20	186	240
-20	204.6	0
-20	204.6	20
-20	204.6	40
-20	204.6	60
-20	204.6	80
-20	204.6	100
-20	204.6	120
-20	204.6	140
-20	204.6	160
-20	204.6	180
-20	204.6	200
-20	204.6	220
-20	204.6	240
-20	223.2	0
-20	223.2	20
-20	223.2	40
-20	223.2	60
-20	223.2	80
-20	223.2	100
-20	223.2	120
-20	223.2	140
-20	223.2	160
-20	223.2	180
-20	223.2	200
-20	223.2	220
-20	223.2	240
0	-37.2	0
0	-37.2	20
0	-37.2	40
0	-37.2	60
0	-37.2	80
0	-37.2	100
0	-37.2	120
0	-37.2	140
0	-37.2	160
0	-37.2	180
0	-37.2	200
0	-37.2	220
0	-37.2	240
0	-18.6	0
0	-18.6	20
0	-18.6	40
0	-18.6	60
0	-18.6	80
0	-18.6	100
0	-18.6	120
0	-18.6	140
0	-18.6	160
0	-18.6	180
0	-18.6	200
0	-18.6	220
0	-18.6	240
0	0	0
0	0	20
0	0	40
0	0	60
0	0	80
0	0	100
0	0	120
0	0	140
0	0	160
0	0	180
0	0	200
0	0	220
0	0	240
0	18.6	0
0	18.6	20
0	18.6	40
0	18.6	60
0	18.6	80
0	18.6	100
0	18.6	120
0	18.6	140
0	18.6	160
0	18.6	180
0	18.6	200
0	18.6	220
0	18.6	240
0	37.2	0
0	37.2	20
0	37.2	40
0	37.2	60
0	37.2	80
0	37.2	100
0	37.2	120
0	37.2	140
0	37.2	160
0	37.2	180
0	37.2	200
0	37.2	220
0	37.2	240
0	55.8	0
0	55.8	20
0	55.8	40
0	55.8	60
0	55.8	80
0	55.8	100
0	55.8	120
0	55.8	140
0	55.8	160
0	55.8	180
0	55.8	200
0	55.8	220
0	55.8	240
0	74.4	0
0	74.4	20
0	74.4	40
0	74.4	60
0	74.4	80
0	74.4	100
0	74.4	120
0	74.4	140
0	74.4	160
0	74.4	180
0	74.4	200
0	74.4	220
0	74.4	240
0	93	0
0	93	20
0	93	40
0	93	60
0	93	80
0	93	100
0	93	120
0	93	140
0	93	160
0	93	180
0	93	200
0	93	220
0	93	240
0	111.6	0
0	111.6	20
0	111.6	40
0	111.6	60
0	111.6	80
0	111.6	100
0	111.6	120
0	111.6	140
0	111.6	160
0	111.6	180
0	111.6	200
0	111.6	220
0	111.6	240
0	130.2	0
0	130.2	20
0	130.2	40
0	130.2	60
0	130.2	80
0	130.2	100
0	130.2	120
0	130.2	140
0	130.2	160
0	130.2	180
0	130.2	200
0	130.2	220
0	130.2	240
0	148.8	0
0	148.8	20
0	148.8	40
0	148.8	60
0	148.8	80
0	148.8	100
0	148.8	120
0	148.8	140
0	148.8	160
0	148.8	180
0	148.8	200
0	148.8	220
0	148.8	240
0	167.4	0
0	167.4	20
0	167.4	40
0	167.4	60
0	167.4	80
0	167.4	100
0	167.4	120
0	167.4	140
0	167.4	160
0	167.4	180
0	167.4	200
0	167.4	220
0	167.4	240
0	186	0
0	186	20
0	186	40
0	186	60
0	186	80
0	186	100
0	186	120
0	186	140
0	186	160
0	186	180
0	186	200
0	186	220
0	186	240
0	204.6	0
0	204.6	20
0	204.6	40
0	204.6	60
0	204.6	80
0	204.6	100
0	204.6	120
0	204.6	140
0	204.6	160
0	204.6	180
0	204.6	200
0	204.6	220
0	204.6	240
0	223.2	0
0	223.2	20
0	223.2	40
0	223.2	60
0	223.2	80
0	223.2	100
0	223.2	120
0	223.2	140
0	223.2	160
0	223.2	180
0	223.2	200
0	223.2	220
0	223.2	240
20	-37.2	0
20	-37.2	20
20	-37.2	40
20	-37.2	60
20	-37.2	80
20	-37.2	100
20	-37.2	120
20	-37.2	140
20	-37.2	160
20	-37.2	180
20	-37.2	200
20	-37.2	220
20	-37.2	240
20	-18.6	0
20	-18.6	20
20	-18.6	40
20	-18.6	60
20	-18.6	80
20	-18.6	100
20	-18.6	120
20	-18.6	140
20	-18.6	160
20	-18.6	180
20	-18.6	200
20	-18.6	220
20	-18.6	240
20	0	0
20	0	20
20	0	40
20	0	60
20	0	80
20	0	100
20	0	120
20	0	140
20	0	160
20	0	180
20	0	200
20	0	220
20	0	240
20	18.6	0
20	18.6	20
20	18.6	40
20	18.6	60
20	18.6	80
20	18.6	100
20	18.6	120
20	18.6	140
20	18.6	160
20	18.6	180
20	18.6	200
20	18.6	220
20	18.6	240
20	37.2	0
20	37.2	20
20	37.2	40
20	37.2	60
20	37.2	80
20	37.2	100
20	37.2	120
20	37.2	140
20	37.2	160
20	37.2	180
20	37.2	200
20	37.2	220
20	37.2	240
20	55.8	0
20	55.8	20
20	55.8	40
20	55.8	60
20	55.8	80
20	55.8	100
20	55.8	120
20	55.8	140
20	55.8	160
20	55.8	180
20	55.8	200
20	55.8	220
20	55.8	240
20	74.4	0
20	74.4	20
20	74.4	40
20	74.4	60
20	74.4	80
20	74.4	100
20	74.4	120
20	74.4	140
20	74.4	160
20	74.4	180
20	74.4	200
20	74.4	220
20	74.4	240
20	93	0
20	93	20
20	93	40
20	93	60
20	93	80
20	93	100
20	93	120
20	93	140
20	93	160
20	93	180
20	93	200
20	93	220
20	93	240
20	111.6	0
20	111.6	20
20	111.6	40
20	111.6	60
20	111.6	80
20	111.6	100
20	111.6	120
20	111.6	140
20	111.6	160
20	111.6	180
20	111.6	200
20	111.6	220
20	111.6	240
20	130.2	0
20	130.2	20
20	130.2	40
20	130.2	60
20	130.2	80
20	130.2	100
20	130.2	120
20	130.2	140
20	130.2	160
20	130.2	180
20	130.2	200
20	130.2	220
20	130.2	240
20	148.8	0
20	148.8	20
20	148.8	40
20	148.8	60
20	148.8	80
20	148.8	100
20	148.8	120
20	148.8	140
20	148.8	160
20	148.8	180
20	148.8	200
20	148.8	220
20	148.8	240
20	167.4	0
20	167.4	20
20	167.4	40
20	167.4	60
20	167.4	80
20	167.4	100
20	167.4	120
20	167.4	140
20	167.4	160
20	167.4	180
20	167.4	200
20	167.4	220
20	167.4	240
20	186	0
20	186	20
20	186	40
20	186	60
20	186	80
20	186	100
20	186	120
20	186	140
20	186	160
20	186	180
20	186	200
20	186	220
20	186	240
20	204.6	0
20	204.6	20
20	204.6	40
20	204.6	60
20	204.6	80
20	204.6	100
20	204.6	120
20	204.6	140
20	204.6	160
20	204.6	180
20	204.6	200
20	204.6	220
20	204.6	240
20	223.2	0
20	223.2	20
20	223.2	40
20	223.2	60
20	223.2	80
20	223.2	100
20	223.2	120
20	223.2	140
20	223.2	160
20	223.2	180
20	223.2	200
20	223.2	220
20	223.2	240
40	-37.2	0
40	-37.2	20
40	-37.2	40
40	-37.2	60
40	-37.2	80
40	-37.2	100
40	-37.2	120
40	-37.2	140
40	-37.2	160
40	-37.2	180
40	-37.2	200
40	-37.2	220
40	-37.2	240
40	-18.6	0
40	-18.6	20
40	-18.6	40
40	-18.6	60
40	-18.6	80
40	-18.6	100
40	-18.6	120
40	-18.6	140
40	-18.6	160
40	-18.6	180
40	-18.6	200
40	-18.6	220
40	-18.6	240
40	0	0
40	0	20
40	0	40
40	0	60
40	0	80
40	0	100
40	0	120
40	0	140
40	0	160
40	0	180
40	0	200
40	0	220
40	0	240
40	18.6	0
40	18.6	20
40	18.6	40
40	18.6	60
40	18.6	80
40	18.6	100
40	18.6	120
40	18.6	140
40	18.6	160
40	18.6	180
40	18.6	200
40	18.6	220
[...]
CELL_DATA	2688
SCALARS density double 1
LOOKUP_TABLE table0
85.345
322.443
501.159
529.081
446.104
343.456
287.364
287.659
312.001
329.039
328.381
332.691
84.8539
325.318
499.025
520.208
431.636
325.332
267.641
268.211
294.322
313.958
316.2
321.537
83.2899
325.898
488.097
496.818
398.652
286.807
227.519
229.811
260.139
285.252
293.31
300.807
78.4952
317.296
462.585
456.509
347.791
230.745
171.188
177.149
214
246.954
263.058
273.604
69.4134
299.253
427.079
405.966
287.269
166.097
107.496
118.344
162.904
204.807
229.936
243.906
63.783
288.34
399.871
361.876
232.329
106.483
48.2287
63.2886
114.893
165.15
198.752
215.88
65.4342
297.894
396.361
340.578
198.194
65.0676
4.36695
20.9474
77.1238
133.564
173.696
193.136
74.7358
321.724
414.724
345.307
190.411
47.9686
-18.2432
-3.47306
53.9911
113.592
157.497
178.069
88.2838
345.234
435.814
361.779
200.582
51.1626
-20.9992
-10.0078
46.0974
106.026
150.915
171.447
93.582
332.916
431.02
368.353
213.175
64.1174
-10.7945
-3.11945
50.5538
108.983
152.74
172.373
96.4173
295.968
401.717
358.605
218.639
77.2586
4.14642
10.6557
62.349
118.71
160.261
178.61
102.267
277.155
376.029
343.645
217.681
86.1633
17.6448
25.131
76.0152
130.709
170.004
187.145
111.032
274.014
363.257
332.632
214.431
90.3133
26.3813
35.8133
86.935
140.806
178.522
194.857
112.938
273.127
360.246
329.648
212.855
90.4107
27.7775
37.9835
89.4399
143.305
180.742
196.948
84.5832
320.439
500.077
525.426
438.079
331.176
272.061
271.05
295.822
314.526
316.189
321.338
85.0286
327.344
501.408
517.633
422.678
310.965
249.835
249.144
275.952
297.599
302.525
308.919
84.8217
334.259
494.374
493.37
385.552
266.944
204.189
205.838
237.681
265.607
277.093
286.071
79.5342
324.778
465.204
445.53
324.971
201.125
139.309
146.211
186.071
223.095
243.683
256.291
62.3023
290.293
413.658
378.499
248.827
123.173
65.0781
79.3806
128.966
176.476
207.295
223.975
54.1023
269.157
367.737
314.309
176.54
49.9562
-4.35965
16.8898
75.5513
132.884
173.285
193.708
54.423
280.162
353.461
279.922
131.076
-0.416247
-55.0142
-30.4227
34.1669
98.6636
146.34
169.468
66.2107
302.643
375.105
287.741
124.119
-18.2129
-78.8698
-56.072
10.0205
77.8787
129.522
153.889
92.6477
351.078
418.733
321.339
145.491
-8.12239
-77.3922
-59.9536
3.83769
71.4252
123.668
147.798
91.2298
337.672
422.907
341.057
170.666
14.99
-59.5916
-47.5976
12.1498
77.0942
127.378
150.168
90.029
268.056
379.712
332.828
184.357
37.6333
-36.2286
-27.1409
28.9537
90.4971
137.534
158.467
101.112
252.531
350.418
318.263
188.763
54.0797
-15.2257
-6.24599
47.7064
106.378
150.141
169.289
117.572
263.553
344.984
311.151
190.033
63.735
-0.844396
9.51555
62.8461
119.818
161.204
179.068
119.146
265.252
344.936
310.123
189.999
65.379
2.11808
13.155
66.6317
123.376
164.262
181.853
81.3129
310.582
491.252
512.611
418.201
304.616
241.047
238.561
264.833
287.12
293.431
300.328
83.3557
321.874
497.149
505.223
399.89
279.901
214.007
212.221
241.175
267.094
277.337
285.864
92.4415
342.794
498.231
478.108
353.797
225.102
158.159
160.229
195.884
229.589
247.717
259.556
88.8613
341.57
467.497
415.836
273.974
140.761
77.7167
88.3459
134.901
180.003
209.094
225.551
21.0703
275.721
386.549
315.251
166.656
37.4473
-15.773
7.34897
67.4764
125.863
167.307
188.934
39.5799
229.771
291.394
204.504
57.8201
-62.503
-104.215
-68.459
4.70605
75.6263
128.617
154.99
49.8346
225.16
233.38
133.723
-14.0369
-131.717
-168.111
-124.984
-43.0559
36.9196
98.5397
128.301
42.6446
203.03
249.521
143.596
-22.2093
-152.614
-195.152
-153.232
-69.1507
14.711
80.6962
111.901
71.3419
324.564
363.624
219.31
22.0731
-129.898
-186.381
-152.656
-72.4913
10.1241
76.0749
106.725
71.3472
352.296
408.527
275.48
75.8755
-86.1407
-154.272
-130.473
-57.4268
20.4403
82.9717
111.531
72.9036
197.846
335.762
276.629
110.726
-42.8353
-114.316
-97.6359
-31.6826
40.2101
97.597
123.301
86.4914
196.203
300.076
267.18
130.034
-9.2997
-78.0941
-64.5882
-3.75864
62.8495
115.067
137.955
127.351
235.036
307.857
269.3
142.651
12.7951
-52.1081
-39.0936
19.0201
82.1085
130.425
151.165
128.631
243.346
313.191
271.981
146.012
17.8596
-45.9037
-32.6292
25.1121
87.4817
134.863
155.064
75.6153
291.691
470.316
487.742
386.31
265.863
197.834
194.332
223.142
250.494
263.162
272.472
76.1767
304.958
477.748
478.072
362.822
234.789
164.524
162.456
194.878
226.766
244.205
255.613
94.2483
347.251
484.387
443.215
303.16
165.47
95.6321
99.7031
141.075
182.675
209.639
225.241
147.72
395.874
452.55
357.971
196.013
56.4925
-4.68443
12.6051
68.7007
124.624
164.851
186.266
154.595
341.353
331.345
206.62
44.2769
-81.0292
-123.15
-86.1868
-11.3554
61.4507
116.671
144.594
81.9957
198.745
142.502
20.0379
-119.119
-218.444
-236.898
-179.086
-85.7689
3.18093
72.4315
106.336
47.1957
66.4859
-18.6891
-117.581
-234.388
-316.09
-319.408
-247.838
-141.672
-41.0063
38.6406
76.7984
23.9305
-36.6402
-10.2761
-111.708
-250.4
-344.64
-352.276
-280.101
-170.452
-65.0125
19.6079
59.4969
28.9527
405.961
269.269
32.2303
-175.538
-306.663
-335.025
-274.348
-170.427
-67.3358
16.5273
55.5007
126.695
526.655
397.164
153.967
-76.836
-233.662
-283.909
-239.599
-146.905
-51.2446
27.3522
63.3187
84.662
136.172
279.452
184.396
-3.17746
-158.485
-220.684
-190.364
-109.71
-23.4922
47.4879
79.3458
95.0571
160.991
245.119
195.437
45.5545
-97.4405
-162.501
-140.901
-69.8645
7.65539
70.9563
98.6827
137.582
204.597
264.036
214.217
78.5921
-55.4026
-119.61
-102.129
-37.0788
34.2547
91.6017
116.063
137.804
213.55
272.102
221.372
87.2792
-45.0017
-108.67
-91.7829
-27.9597
41.9135
97.7247
121.298
69.7145
270.919
441.529
454.811
347.613
221.17
149.137
144.929
176.662
209.614
229.305
241.243
68.9279
280.396
445.005
440.386
318.035
183.442
109.506
107.569
143.875
182.268
207.556
222.052
80.3926
307.786
440.534
392.655
243.388
99.2733
27.5804
34.1904
81.7276
131.75
168.176
187.725
96.4708
324.773
380.835
277.348
106.976
-34.8819
-92.7111
-68.013
-1.84925
65.4281
117.39
143.923
64.9881
214.008
197.089
66.9619
-92.6212
-208.138
-236.722
-184.745
-94.4769
-6.59485
62.9986
97.3642
21.2875
-7.97508
-101.91
-208.355
-317.627
-386.406
-377.232
-295.232
-180.613
-72.8117
13.3878
54.9738
-14.805
-296.348
-397.863
-434.106
-487.887
-517.988
-480.723
-377.09
-244.869
-122.47
-23.9578
22.7728
-200.804
-454.777
-424.922
-457.834
-525.129
-560.229
-521.939
-414.298
-276.572
-148.242
-44.0467
4.75586
196.341
345.756
-11.4911
-262.514
-427.027
-510.178
-497.526
-403.815
-273.235
-148.192
-45.4321
2.12318
273.603
510.14
227.817
-56.9704
-276.311
-405.454
-426.476
-356.051
-240.953
-126.082
-30.4771
13.136
98.396
70.0451
176.873
48.7298
-145.853
-291.321
-337.055
-289.107
-191.652
-89.9548
-4.60138
33.6013
109.248
185.567
198.874
112.659
-51.4308
-195.072
-253.309
-221.522
-139.049
-49.8119
25.0911
57.7838
150.836
180.085
222.74
157.352
10.6401
-127.681
-190.539
-167.938
-95.4836
-15.4523
51.2136
79.4544
147.195
177.166
228.953
169.171
26.0968
-110.659
-174.028
-153.236
-83.0872
-5.38206
59.0773
86.0546
65.6265
256.137
415.857
423.351
310.714
178.782
102.838
97.6158
131.738
169.722
195.94
210.231
66.12
266.58
418.716
406.546
277.048
136.162
58.3869
55.9898
95.3801
139.483
171.932
189.136
79.4673
284.288
409.847
352.385
192.642
41.2502
-33.3932
-25.6089
26.6738
83.85
128.678
151.6
69.7989
262.635
334.903
220.512
36.7863
-111.267
-168.911
-139.591
-65.7256
10.9722
73.0984
103.92
61.6819
129.453
117.185
-27.3884
-196.81
-311.476
-332.768
-270.429
-168.299
-68.0772
13.7919
53.4893
23.9069
-142.046
-259.551
-369.201
-470.122
-522.554
-494.906
-395.055
-263.766
-140.575
-40.0172
7.91475
-154.481
-577.719
-671.219
-675.704
-690.952
-684.593
-616.599
-487.855
-334.727
-194.468
-80.0699
-26.2121
-347.421
-823.04
-798.133
-760.25
-760.605
-743.842
-666.698
-529.631
-368.746
-221.411
-100.735
-44.516
-232.399
-328.106
-459.093
-573.493
-659.54
-689.432
-638.2
-515.612
-362.493
-219.051
-100.36
-45.6586
-11.0164
23.1887
-101.757
-298.658
-467.941
-559.623
-550.919
-456.856
-322.547
-191.51
-81.5696
-31.5915
83.716
79.0965
68.4699
-88.4071
-278.902
-409.499
-438.206
-374.304
-262.533
-147.902
-50.4754
-7.04701
102.613
181.838
166.635
44.0562
-134.985
-278.87
-330.785
-290.363
-198.538
-99.7415
-15.1813
21.4968
148.548
123.134
188.733
115.672
-42.7997
-186.558
-249.323
-223.257
-145.301
-58.4576
15.8045
46.9875
149.448
124.714
194.817
131.604
-20.7565
-163.12
-227.563
-204.562
-129.96
-46.2354
25.2026
54.7927
62.7719
246.005
397.788
399.75
282.2
145.283
65.347
58.3811
93.6798
135.27
166.575
182.557
63.0871
264.754
404.988
383.869
247.435
100.591
18.542
14.5063
55.3312
103.333
141.18
160.26
91.3975
324.52
414.708
334.222
161.259
1.50652
-77.889
-71.3474
-16.9524
44.7627
95.601
120.746
106.54
392.451
378.847
210.671
1.98911
-157.956
-220.455
-191.319
-114.132
-31.7933
37.2255
70.7474
111.009
354.123
198.541
-34.023
-240.295
-368.942
-393.652
-329.318
-221.981
-114.714
-24.8362
18.1168
63.4643
45.9675
-189.517
-391.829
-531.502
-594.902
-566.526
-461.208
-322.292
-190.494
-80.8816
-29.1153
-81.6266
-418.155
-640.734
-734.188
-778.302
-773.506
-698.119
-559.728
-396.544
-246.327
-122.103
-64.0189
-167.361
-653.796
-832.868
-867.534
-874.034
-845.465
-753.992
-603.811
-431.24
-273.258
-142.508
-81.9378
-98.9542
-401.18
-609.845
-719.96
-784.769
-793.172
-724.13
-587.34
-422.447
-268.665
-140.33
-81.4832
27.2228
-25.9857
-225.173
-425.257
-577.941
-651.451
-627.525
-521.331
-376.923
-236.886
-118.386
-64.7828
116.011
218.819
65.3569
-154.729
-354.688
-479.507
-499.93
-428.249
-309.31
-187.733
-83.2713
-36.9542
97.3323
255.202
188.265
18.7034
-178.303
-325.92
-376.506
-333.038
-237.268
-133.752
-43.7786
-5.02617
174.074
146.912
198.393
106.549
-65.2014
-216.171
-282.04
-256.51
-177.22
-87.5086
-9.20124
23.332
165.344
133.23
199.521
124.678
-38.4874
-188.168
-256.596
-235.034
-159.822
-73.7676
1.30286
32.0222
61.8567
239.014
387.628
385.507
264.288
123.457
39.8414
30.551
65.6871
109.11
143.561
160.396
53.6941
243.712
388.602
368.016
229.56
79.096
-6.76401
-13.3253
27.1606
76.8818
117.823
137.747
68.4802
281.651
390.214
318.408
145.373
-18.3994
-102.41
-98.9809
-45.2721
17.9456
71.7746
97.7404
92.2089
343.151
358.863
203.911
-7.05778
-174.114
-243.272
-218.35
-142.424
-58.8761
13.0048
47.3146
130.515
342.211
213.735
-16.8635
-236.695
-379.322
-414.011
-355.342
-249.928
-141.791
-49.2143
-5.48956
70.5059
108.923
-113.689
-342.8
-513.957
-599.595
-584.434
-485.977
-349.498
-217.131
-105.025
-52.5359
-14.8039
-256.303
-508.671
-663.727
-753.701
-775.571
-714.455
-583.14
-422.543
-271.97
-145.492
-86.7636
-80.7628
-448.628
-693.27
-803.292
-854.381
-849.106
-769.725
-625.652
-455.455
-297.276
-164.573
-103.475
-22.2008
-266.664
-527.131
-686.208
-777.767
-800.216
-739.178
-606.996
-444.185
-290.424
-160.533
-101.33
58.8159
42.5642
-192.531
-416.685
-579.823
-659.496
-640.381
-537.817
-395.495
-255.865
-136.322
-82.5876
112.747
246.969
75.9997
-152.526
-355.823
-484.135
-508.627
-440.673
-324.275
-203.678
-98.7639
-52.5785
96.4552
251.289
192.092
26.5288
-172.223
-324.297
-380.03
-341.174
-248.693
-146.804
-56.9583
-18.5989
177.698
161.248
217.806
125.815
-50.7896
-208.475
-281.001
-261.082
-185.79
-98.2539
-20.533
11.379
167.798
154.061
225.916
148.266
-21.4029
-178.651
-254.226
-238.582
-167.577
-83.8527
-9.49542
20.5364
72.8341
257.86
393.952
381.982
256.258
112.492
26.0452
14.4364
48.4887
92.1617
127.825
144.725
73.4737
255.787
386.457
361.462
222.152
70.1733
-18.3053
-27.4906
11.4606
60.9874
102.769
122.575
92.2313
239.46
360.183
306.646
141.458
-21.7463
-108.746
-108.997
-57.9278
4.16217
58.0806
83.5708
75.0015
182.929
296.19
196.05
0.738131
-166.242
-240.765
-221.9
-150.555
-69.6059
1.29385
34.6178
70.5303
138.964
169.711
4.78216
-204.328
-353.652
-399.183
-350.488
-252.381
-148.736
-58.4791
-16.33
46.6276
25.4556
-79.5361
-269.144
-447.65
-552.18
-555.567
-471.885
-345.789
-219.953
-111.582
-61.2977
-44.6748
-259.708
-402.389
-540.487
-656.094
-708.589
-672.993
-560.64
-413.087
-270.83
-149.354
-93.3818
-156.456
-426.509
-549.943
-655.554
-740.897
-771.112
-720.24
-597.162
-441.514
-292.808
-166.023
-108.067
-44.5122
-214.468
-392.737
-550.648
-669.489
-722.432
-687.618
-575.719
-427.502
-283.571
-160.056
-104.165
59.5061
25.3995
-128.999
-322.792
-491.922
-590.391
-591.666
-506.658
-377.793
-247.641
-134.492
-84.0329
54.9868
76.3142
56.7189
-99.8136
-289.626
-426.217
-465.158
-411.492
-306.865
-194.962
-96.1404
-53.0338
80.4758
116.711
172.849
66.4084
-118.685
-275.335
-341.868
-314.666
-232.322
-138.22
-54.0076
-18.4469
145.748
165.152
252.277
174.149
-1.26046
-165.007
-246.971
-237.069
-170.675
-90.1335
-17.5866
11.8122
150.975
192.264
277.473
201.242
28.0386
-136.438
-221.389
-215.4
-152.949
-75.9701
-6.62631
20.9962
84.0667
287.698
409.145
384.263
253.906
108.741
21.0553
7.9278
40.6887
83.5892
118.945
135.349
88.3535
293.304
401.945
363.609
221.649
69.6747
-19.6501
-30.6445
6.43282
54.542
95.4198
114.426
96.7041
278.694
371.961
309.394
146.728
-14.1131
-101.952
-105.17
-57.4647
1.80577
53.6119
77.7037
66.7138
255.364
321.304
209.98
20.8237
-143.184
-220.511
-207.421
-142.133
-66.236
0.778456
31.8459
89.3603
348.12
248.169
51.0625
-155.551
-306.437
-360.257
-322.31
-234.202
-138.551
-54.3745
-15.515
108.146
255.041
45.8041
-173.867
-357.741
-474.188
-494.876
-428.645
-317.264
-202.688
-102.722
-56.7942
-16.6977
-108.335
-247.459
-391.586
-522.336
-599.992
-591.77
-503.63
-375.241
-247.207
-136.202
-85.5068
-66.4103
-235.517
-353.636
-465.72
-576.206
-641.427
-624.865
-530.501
-396.962
-264.471
-149.583
-97.5079
96.0955
11.9607
-192.647
-357.816
-500.166
-587.982
-587.938
-505.351
-379.865
-252.745
-141.675
-91.8505
154.282
174.609
15.4628
-165.622
-343.316
-467.017
-497.377
-438.523
-330.742
-216.614
-115.582
-70.9547
45.0957
137.701
145.764
14.1809
-171.861
-322.513
-382.47
-349.808
-263.2
-165.576
-77.8898
-40.0616
76.6494
215.883
256.831
154.914
-27.2031
-191.576
-272.394
-261.115
-193.428
-111.523
-37.1706
-6.17731
163.315
310.052
345.814
251.166
72.9217
-96.5316
-188.65
-190.917
-136.426
-66.2488
-2.36741
23.1632
154.516
311.533
364.111
274.378
97.7198
-72.2111
-166.408
-171.607
-120.262
-53.0776
7.99248
31.9855
88.6779
296.435
410.881
380.818
250.467
107.22
20.7505
7.60126
39.5677
81.3536
115.503
131.158
92.4607
299.762
402.493
360.477
220.546
71.9742
-15.606
-26.8399
8.84027
55.1189
94.0864
111.98
96.5809
281.505
370.176
307.969
152.22
-2.54948
-88.3208
-92.8415
-48.1086
7.73282
56.1903
78.4487
68.6802
253.533
313.166
214.184
40.5872
-114.786
-191.297
-182.227
-122.811
-52.8909
8.63281
36.8284
83.0292
276.18
221.391
70.5234
-109.439
-252.134
-309.626
-280.709
-202.796
-116.512
-40.4619
-5.746
80.7059
160.129
33.5985
-114.671
-270.153
-386.065
-419.123
-369.062
-273.181
-171.781
-82.7328
-42.2466
-52.2604
-124.78
-177.478
-263.702
-383.602
-476.245
-491.787
-427.581
-319.893
-208.547
-110.936
-66.7936
13.2544
-144.956
-189.95
-271.764
-395.078
-490.825
-507.54
-442.926
-333.755
-220.36
-120.548
-75.7401
7.81306
0.66557
-23.8758
-144.82
-305.571
-428.78
-464.818
-413.591
-313.505
-206.221
-110.814
-68.4358
6.95894
120.595
146.087
18.9616
-167.252
-319.031
-380.652
-350.175
-266.04
-170.771
-84.8681
-47.3296
133.995
236.175
262.018
154.451
-31.6512
-198.419
-280.648
-270.47
-203.842
-122.856
-48.9253
-17.4172
91.4669
294.166
342.955
253.148
76.3769
-93.996
-188.246
-193.098
-141.18
-73.2244
-10.8786
14.7682
129.957
341.318
398.654
317.87
148.721
-20.4667
-119.755
-133.185
-90.9274
-32.3194
21.1865
42.3015
129.06
338.711
407.336
332.308
165.872
-2.33352
-102.124
-117.122
-76.9728
-20.624
30.5987
50.4816
85.9883
282.155
393.531
366.684
241.953
104.195
21.4257
9.9317
42.0099
82.9026
115.577
130.514
84.4508
275.611
380.286
345.85
214.386
72.888
-10.4443
-20.185
15.0557
59.7548
96.5392
113.353
79.1424
249.276
344.072
295.546
153.233
7.91342
-73.3261
-77.3102
-34.4893
18.2138
63.0308
83.479
94.9611
209.232
274.992
207.426
56.2188
-87.4656
-160.593
-153.453
-98.6678
-34.3743
21.333
46.6619
61.9871
56.8492
140.59
76.267
-68.4987
-199.734
-257.774
-235.295
-166.051
-88.6875
-21.1247
9.42911
88.876
-125.079
-41.0602
-70.243
-189.945
-301.586
-342.885
-305.679
-223.409
-134.61
-56.848
-21.8389
-67.4248
-250.301
-133.915
-144.88
-254.015
-358.065
-392.263
-347.977
-258.752
-163.384
-79.5114
-41.9545
-9.71721
9.89958
15.6322
-74.3506
-222.708
-346.881
-391.439
-352.185
-264.924
-169.802
-85.3627
-47.8269
50.6142
293.825
250.044
83.2874
-117.857
-276.267
-343.35
-319.146
-241.954
-153.614
-74.085
-39.1124
12.0744
305.996
358.444
214.323
1.9224
-177.564
-265.87
-259.721
-196.806
-119.461
-48.804
-18.2498
55.3634
264.229
370.846
286.014
98.2687
-81.3466
-181.204
-189.714
-140.751
-75.4398
-15.2721
10.0972
51.4927
240.536
369.132
324.827
165.151
-4.51812
-107.07
-124.372
-85.9999
-31.0133
19.4325
39.9954
86.2358
270.943
385.123
351.018
206.955
46.6219
-54.3194
-75.2859
-43.1203
4.88743
48.2287
65.2058
94.5212
282.355
391.658
357.535
216.252
58.4333
-41.391
-62.5851
-31.5238
14.9449
56.5423
72.5951
81.9677
263.906
370.584
347.527
229.588
98.5684
20.799
12.1644
45.2652
85.8019
117.221
131.675
76.2071
249.495
354.187
327.365
204.803
71.1003
-6.88735
-13.9202
21.886
65.6424
100.541
116.551
60.8985
222.408
322.695
283.943
152.088
15.3469
-60.6803
-62.8139
-20.6733
29.7409
71.3653
90.3581
62.0843
230.745
284.368
214.976
71.7672
-64.3145
-133.763
-126.864
-75.0236
-15.1701
35.4027
58.3327
91.576
236.506
214.813
117.007
-27.42
-154.686
-212.556
-193.869
-130.838
-60.6999
-0.655486
26.3614
14.0591
115.656
95.5418
10.8531
-117.36
-231.001
-277.469
-248.721
-176.506
-97.9715
-30.1609
0.142744
-2.59106
36.0331
42.3153
-24.9136
-149.7
-263.106
-308.585
-277.518
-201.955
-119.547
-47.7017
-15.7961
-99.3059
278.582
228.944
79.6933
-94.03
-234.818
-295.592
-272.96
-201.767
-121.345
-50.2485
-18.9118
73.433
629.909
490.679
250.621
18.0031
-159.761
-244.424
-237.603
-176.984
-103.729
-37.863
-9.13504
101.703
581.539
546.115
354.588
122.534
-70.6841
-173.254
-182.299
-134.486
-71.259
-13.6056
11.1522
31.3781
342.553
455.126
373.881
188.581
6.14775
-101.543
-121.062
-84.3759
-31.2632
17.277
37.6695
33.633
227.541
378.744
364.589
223.806
61.3223
-42.4908
-66.2571
-36.9825
8.04109
48.5474
65.0615
66.2691
232.686
362.229
361.392
242.491
95.1041
-2.54295
-26.4672
-0.80433
39.1889
74.0538
87.8076
73.3078
241.996
364.839
362.112
246.093
102.174
6.68591
-16.5525
8.72385
47.7455
81.2986
94.3862
82.0925
258.796
356.236
331.044
216.651
91.0226
18.0643
12.6969
47.4249
88.1922
118.853
133.142
77.5509
245.634
341.607
313.182
194.742
66.8449
-6.16812
-10.0413
27.0685
70.6162
104.261
119.855
55.6857
215.126
315.014
276.867
149.495
18.6889
-52.5562
-52.1363
-9.60429
39.5754
78.9039
96.9617
31.0193
217.401
293.274
223.449
82.469
-48.7049
-114.413
-106.372
-55.7624
1.20959
47.9518
69.1971
34.9611
284.174
267.188
148.632
0.752026
-123.434
-179.365
-161.702
-102.137
-36.9348
17.3992
41.8471
47.33
287.919
175.769
56.2436
-73.6871
-184.007
-230.203
-204.888
-138.566
-67.1071
-6.8704
19.9716
43.0121
13.931
43.975
8.43455
-98.2026
-204.108
-249.951
-224.22
-156.562
-82.9943
-20.2247
7.51846
-57.7079
54.3266
155.412
96.7382
-41.0881
-169.898
-230.692
-214.228
-151.998
-81.4023
-20.2421
6.58253
155.8
510.336
435.973
266.523
69.0309
-95.5118
-179.354
-178.3
-126.514
-63.1044
-7.25663
17.0255
59.1837
453.734
509.904
371.826
167.789
-12.9205
-113.464
-126.856
-86.7088
-32.4768
15.8005
36.555
16.9643
266.828
433.945
387.806
224.255
53.6628
-50.5039
-72.4139
-41.6389
3.86967
44.1803
61.2293
40.969
211.913
368.347
371.732
248.546
97.8147
-1.03691
-25.2924
-0.141162
38.814
72.3388
86.2317
64.2597
225.177
349.976
361.075
258.247
122.768
31.0665
7.97788
30.8915
66.0385
94.951
106.7
66.9467
230.436
349.992
359.644
259.628
127.607
38.2224
16.0817
38.9306
73.4116
101.292
112.553
86.2938
262.684
350.354
319.444
205.355
82.9419
13.6521
11.181
47.6569
89.0605
119.512
133.92
88.2044
259.29
340.729
303.964
185.397
60.9146
-8.23755
-9.19889
29.5012
73.4193
106.524
122.069
90.4168
245.335
319.247
270.91
144.209
17.5514
-49.5978
-46.4788
-2.87826
46.0141
84.0896
101.739
89.1064
237.06
289.809
218.825
82.9517
-42.5009
-103.975
-93.8399