# vtk DataFile Version 3.0
Gravity inversion using rectangular prisms
ASCII
DATASET UNSTRUCTURED_GRID

POINTS	14713	double
-40	-37.2	0
-40	-37.2	20
-40	-37.2	30
-40	-37.2	40
-40	-37.2	60
-40	-37.2	80
-40	-37.2	100
-40	-37.2	120
-40	-37.2	140
-40	-37.2	160
-40	-37.2	180
-40	-37.2	200
-40	-37.2	220
-40	-37.2	240
-40	-27.9	20
-40	-27.9	30
-40	-27.9	40
-40	-18.6	0
-40	-18.6	20
-40	-18.6	30
-40	-18.6	40
-40	-18.6	60
-40	-18.6	80
-40	-18.6	100
-40	-18.6	120
-40	-18.6	140
-40	-18.6	160
-40	-18.6	180
-40	-18.6	200
-40	-18.6	220
-40	-18.6	240
-40	-9.3	20
-40	-9.3	30
-40	-9.3	40
-40	0	0
-40	0	20
-40	0	30
-40	0	40
-40	0	60
-40	0	80
-40	0	100
-40	0	120
-40	0	140
-40	0	160
-40	0	180
-40	0	200
-40	0	220
-40	0	240
-40	9.3	20
-40	9.3	30
-40	9.3	40
-40	18.6	0
-40	18.6	20
-40	18.6	30
-40	18.6	40
-40	18.6	60
-40	18.6	80
-40	18.6	100
-40	18.6	120
-40	18.6	140
-40	18.6	160
-40	18.6	180
-40	18.6	200
-40	18.6	220
-40	18.6	240
-40	27.9	20
-40	27.9	30
-40	27.9	40
-40	37.2	0
-40	37.2	10
-40	37.2	20
-40	37.2	30
-40	37.2	40
-40	37.2	60
-40	37.2	80
-40	37.2	100
-40	37.2	120
-40	37.2	140
-40	37.2	160
-40	37.2	180
-40	37.2	200
-40	37.2	220
-40	37.2	240
-40	46.5	0
-40	46.5	10
-40	46.5	20
-40	46.5	30
-40	46.5	40
-40	55.8	0
-40	55.8	10
-40	55.8	20
-40	55.8	30
-40	55.8	40
-40	55.8	60
-40	55.8	80
-40	55.8	90
-40	55.8	100
-40	55.8	120
-40	55.8	140
-40	55.8	160
-40	55.8	180
-40	55.8	200
-40	55.8	220
-40	55.8	240
-40	65.1	0
-40	65.1	10
-40	65.1	20
-40	65.1	30
-40	65.1	40
-40	65.1	80
-40	65.1	90
-40	65.1	100
-40	74.4	0
-40	74.4	10
-40	74.4	20
-40	74.4	30
-40	74.4	40
-40	74.4	60
-40	74.4	80
-40	74.4	90
-40	74.4	100
-40	74.4	120
-40	74.4	140
-40	74.4	160
-40	74.4	180
-40	74.4	200
-40	74.4	220
-40	74.4	240
-40	83.7	0
-40	83.7	10
-40	83.7	20
-40	83.7	30
-40	83.7	40
-40	83.7	80
-40	83.7	90
-40	83.7	100
-40	93	0
-40	93	10
-40	93	20
-40	93	30
-40	93	40
-40	93	60
-40	93	80
-40	93	90
-40	93	100
-40	93	120
-40	93	140
-40	93	160
-40	93	180
-40	93	200
-40	93	220
-40	93	240
-40	102.3	0
-40	102.3	10
-40	102.3	20
-40	102.3	30
-40	102.3	40
-40	102.3	80
-40	102.3	90
-40	102.3	100
-40	111.6	0
-40	111.6	10
-40	111.6	20
-40	111.6	30
-40	111.6	40
-40	111.6	60
-40	111.6	80
-40	111.6	90
-40	111.6	100
-40	111.6	120
-40	111.6	140
-40	111.6	160
-40	111.6	180
-40	111.6	200
-40	111.6	220
-40	111.6	240
-40	120.9	0
-40	120.9	10
-40	120.9	20
-40	120.9	30
-40	120.9	40
-40	120.9	80
-40	120.9	90
-40	120.9	100
-40	130.2	0
-40	130.2	10
-40	130.2	20
-40	130.2	30
-40	130.2	40
-40	130.2	60
-40	130.2	80
-40	130.2	90
-40	130.2	100
-40	130.2	120
-40	130.2	140
-40	130.2	160
-40	130.2	180
-40	130.2	200
-40	130.2	220
-40	130.2	240
-40	139.5	0
-40	139.5	10
-40	139.5	20
-40	139.5	30
-40	139.5	40
-40	139.5	80
-40	139.5	90
-40	139.5	100
-40	148.8	0
-40	148.8	10
-40	148.8	20
-40	148.8	30
-40	148.8	40
-40	148.8	60
-40	148.8	80
-40	148.8	90
-40	148.8	100
-40	148.8	120
-40	148.8	140
-40	148.8	160
-40	148.8	180
-40	148.8	200
-40	148.8	220
-40	148.8	240
-40	158.1	20
-40	158.1	30
-40	158.1	40
-40	158.1	80
-40	158.1	90
-40	158.1	100
-40	167.4	0
-40	167.4	20
-40	167.4	30
-40	167.4	40
-40	167.4	60
-40	167.4	80
-40	167.4	90
-40	167.4	100
-40	167.4	120
-40	167.4	140
-40	167.4	160
-40	167.4	180
-40	167.4	200
-40	167.4	220
-40	167.4	240
-40	186	0
-40	186	20
-40	186	40
-40	186	60
-40	186	80
-40	186	100
-40	186	120
-40	186	140
-40	186	160
-40	186	180
-40	186	200
-40	186	220
-40	186	240
-40	204.6	0
-40	204.6	20
-40	204.6	40
-40	204.6	60
-40	204.6	80
-40	204.6	100
-40	204.6	120
-40	204.6	140
-40	204.6	160
-40	204.6	180
-40	204.6	200
-40	204.6	220
-40	204.6	240
-40	223.2	0
-40	223.2	20
-40	223.2	40
-40	223.2	60
-40	223.2	80
-40	223.2	100
-40	223.2	120
-40	223.2	140
-40	223.2	160
-40	223.2	180
-40	223.2	200
-40	223.2	220
-40	223.2	240
-30	-37.2	20
-30	-37.2	30
-30	-37.2	40
-30	-27.9	20
-30	-27.9	30
-30	-27.9	40
-30	-18.6	20
-30	-18.6	30
-30	-18.6	40
-30	-9.3	20
-30	-9.3	30
-30	-9.3	40
-30	0	20
-30	0	30
-30	0	40
-30	9.3	20
-30	9.3	30
-30	9.3	40
-30	18.6	20
-30	18.6	30
-30	18.6	40
-30	27.9	20
-30	27.9	30
-30	27.9	40
-30	37.2	0
-30	37.2	10
-30	37.2	20
-30	37.2	30
-30	37.2	40
-30	46.5	0
-30	46.5	10
-30	46.5	20
-30	46.5	30
-30	46.5	40
-30	55.8	0
-30	55.8	10
-30	55.8	20
-30	55.8	30
-30	55.8	40
-30	55.8	80
-30	55.8	90
-30	55.8	100
-30	65.1	0
-30	65.1	10
-30	65.1	20
-30	65.1	30
-30	65.1	40
-30	65.1	80
-30	65.1	90
-30	65.1	100
-30	74.4	0
-30	74.4	10
-30	74.4	20
-30	74.4	30
-30	74.4	40
-30	74.4	80
-30	74.4	90
-30	74.4	100
-30	83.7	0
-30	83.7	10
-30	83.7	20
-30	83.7	30
-30	83.7	40
-30	83.7	80
-30	83.7	90
-30	83.7	100
-30	93	0
-30	93	10
-30	93	20
-30	93	30
-30	93	40
-30	93	80
-30	93	90
-30	93	100
-30	102.3	0
-30	102.3	10
-30	102.3	20
-30	102.3	30
-30	102.3	40
-30	102.3	80
-30	102.3	90
-30	102.3	100
-30	111.6	0
-30	111.6	10
-30	111.6	20
-30	111.6	30
-30	111.6	40
-30	111.6	80
-30	111.6	90
-30	111.6	100
-30	120.9	0
-30	120.9	10
-30	120.9	20
-30	120.9	30
-30	120.9	40
-30	120.9	80
-30	120.9	90
-30	120.9	100
-30	130.2	0
-30	130.2	10
-30	130.2	20
-30	130.2	30
-30	130.2	40
-30	130.2	80
-30	130.2	90
-30	130.2	100
-30	139.5	0
-30	139.5	10
-30	139.5	20
-30	139.5	30
-30	139.5	40
-30	139.5	80
-30	139.5	90
-30	139.5	100
-30	148.8	0
-30	148.8	10
-30	148.8	20
-30	148.8	30
-30	148.8	40
-30	148.8	80
-30	148.8	90
-30	148.8	100
-30	158.1	20
-30	158.1	30
-30	158.1	40
-30	158.1	80
-30	158.1	90
-30	158.1	100
-30	167.4	20
-30	167.4	30
-30	167.4	40
-30	167.4	80
-30	167.4	90
-30	167.4	100
-20	-37.2	0
-20	-37.2	20
-20	-37.2	30
-20	-37.2	40
-20	-37.2	60
-20	-37.2	80
-20	-37.2	100
-20	-37.2	120
-20	-37.2	140
-20	-37.2	160
-20	-37.2	180
-20	-37.2	200
-20	-37.2	220
-20	-37.2	240
-20	-27.9	20
-20	-27.9	30
-20	-27.9	40
-20	-18.6	0
-20	-18.6	20
-20	-18.6	30
-20	-18.6	40
-20	-18.6	60
-20	-18.6	80
-20	-18.6	100
-20	-18.6	120
-20	-18.6	140
-20	-18.6	160
-20	-18.6	180
-20	-18.6	200
-20	-18.6	220
-20	-18.6	240
-20	-9.3	20
-20	-9.3	30
-20	-9.3	40
-20	0	0
-20	0	20
-20	0	30
-20	0	40
-20	0	60
-20	0	80
-20	0	100
-20	0	120
-20	0	140
-20	0	160
-20	0	180
-20	0	200
-20	0	220
-20	0	240
-20	9.3	20
-20	9.3	30
-20	9.3	40
-20	18.6	0
-20	18.6	20
-20	18.6	30
-20	18.6	40
-20	18.6	60
-20	18.6	80
-20	18.6	90
-20	18.6	100
-20	18.6	120
-20	18.6	140
-20	18.6	160
-20	18.6	180
-20	18.6	200
-20	18.6	220
-20	18.6	240
-20	27.9	20
-20	27.9	30
-20	27.9	40
-20	27.9	80
-20	27.9	90
-20	27.9	100
-20	37.2	0
-20	37.2	10
-20	37.2	20
-20	37.2	30
-20	37.2	40
-20	37.2	60
-20	37.2	80
-20	37.2	90
-20	37.2	100
-20	37.2	110
-20	37.2	120
-20	37.2	140
-20	37.2	160
-20	37.2	180
-20	37.2	200
-20	37.2	220
-20	37.2	240
-20	46.5	0
-20	46.5	10
-20	46.5	20
-20	46.5	30
-20	46.5	40
-20	46.5	80
-20	46.5	90
-20	46.5	100
-20	46.5	110
-20	46.5	120
-20	55.8	0
-20	55.8	10
-20	55.8	20
-20	55.8	30
-20	55.8	40
-20	55.8	60
-20	55.8	80
-20	55.8	90
-20	55.8	100
-20	55.8	110
-20	55.8	120
-20	55.8	140
-20	55.8	160
-20	55.8	180
-20	55.8	200
-20	55.8	220
-20	55.8	240
-20	65.1	0
-20	65.1	10
-20	65.1	20
-20	65.1	30
-20	65.1	40
-20	65.1	80
-20	65.1	90
-20	65.1	100
-20	65.1	110
-20	65.1	120
-20	74.4	0
-20	74.4	10
-20	74.4	20
-20	74.4	30
-20	74.4	40
-20	74.4	60
-20	74.4	70
-20	74.4	80
-20	74.4	90
-20	74.4	100
-20	74.4	110
-20	74.4	120
-20	74.4	140
-20	74.4	160
-20	74.4	180
-20	74.4	200
-20	74.4	220
-20	74.4	240
-20	83.7	0
-20	83.7	10
-20	83.7	20
-20	83.7	30
-20	83.7	40
-20	83.7	60
-20	83.7	70
-20	83.7	80
-20	83.7	90
-20	83.7	100
-20	83.7	110
-20	83.7	120
-20	93	0
-20	93	10
-20	93	20
-20	93	30
-20	93	40
-20	93	60
-20	93	70
-20	93	80
-20	93	90
-20	93	100
-20	93	110
-20	93	120
-20	93	140
-20	93	160
-20	93	180
-20	93	200
-20	93	220
-20	93	240
-20	102.3	0
-20	102.3	10
-20	102.3	20
-20	102.3	30
-20	102.3	40
-20	102.3	60
-20	102.3	70
-20	102.3	80
-20	102.3	90
-20	102.3	100
-20	102.3	110
-20	102.3	120
-20	111.6	0
-20	111.6	10
-20	111.6	20
-20	111.6	30
-20	111.6	40
-20	111.6	60
-20	111.6	70
-20	111.6	80
-20	111.6	90
-20	111.6	100
-20	111.6	110
-20	111.6	120
-20	111.6	140
-20	111.6	160
-20	111.6	180
-20	111.6	200
-20	111.6	220
-20	111.6	240
-20	120.9	0
-20	120.9	10
-20	120.9	20
-20	120.9	30
-20	120.9	40
-20	120.9	60
-20	120.9	70
-20	120.9	80
-20	120.9	90
-20	120.9	100
-20	120.9	110
-20	120.9	120
-20	130.2	0
-20	130.2	10
-20	130.2	20
-20	130.2	30
-20	130.2	40
-20	130.2	60
-20	130.2	70
-20	130.2	80
-20	130.2	90
-20	130.2	100
-20	130.2	110
-20	130.2	120
-20	130.2	140
-20	130.2	160
-20	130.2	180
-20	130.2	200
-20	130.2	220
-20	130.2	240
-20	139.5	0
-20	139.5	10
-20	139.5	20
-20	139.5	30
-20	139.5	40
-20	139.5	60
-20	139.5	70
-20	139.5	80
-20	139.5	90
-20	139.5	100
-20	139.5	110
-20	139.5	120
-20	148.8	0
-20	148.8	10
-20	148.8	20
-20	148.8	30
-20	148.8	40
-20	148.8	60
-20	148.8	70
-20	148.8	80
-20	148.8	90
-20	148.8	100
-20	148.8	110
-20	148.8	120
-20	148.8	140
-20	148.8	160
-20	148.8	180
-20	148.8	200
-20	148.8	220
-20	148.8	240
-20	158.1	20
-20	158.1	30
-20	158.1	40
-20	158.1	80
-20	158.1	90
-20	158.1	100
-20	167.4	0
-20	167.4	20
-20	167.4	30
-20	167.4	40
-20	167.4	60
-20	167.4	80
-20	167.4	90
-20	167.4	100
-20	167.4	120
-20	167.4	140
-20	167.4	160
-20	167.4	180
-20	167.4	200
-20	167.4	220
-20	167.4	240
-20	186	0
-20	186	20
-20	186	40
-20	186	60
-20	186	80
-20	186	100
-20	186	120
-20	186	140
-20	186	160
-20	186	180
-20	186	200
-20	186	220
-20	186	240
-20	204.6	0
-20	204.6	20
-20	204.6	40
-20	204.6	60
-20	204.6	80
-20	204.6	100
-20	204.6	120
-20	204.6	140
-20	204.6	160
-20	204.6	180
-20	204.6	200
-20	204.6	220
-20	204.6	240
-20	223.2	0
-20	223.2	20
-20	223.2	40
-20	223.2	60
-20	223.2	80
-20	223.2	100
-20	223.2	120
-20	223.2	140
-20	223.2	160
-20	223.2	180
-20	223.2	200
-20	223.2	220
-20	223.2	240
-10	-37.2	20
-10	-37.2	30
-10	-37.2	40
-10	-27.9	20
-10	-27.9	30
-10	-27.9	40
-10	-18.6	20
-10	-18.6	30
-10	-18.6	40
-10	-9.3	20
-10	-9.3	30
-10	-9.3	40
-10	0	20
-10	0	30
-10	0	40
-10	9.3	20
-10	9.3	30
-10	9.3	40
-10	18.6	20
-10	18.6	30
-10	18.6	40
-10	18.6	80
-10	18.6	90
-10	18.6	100
-10	27.9	20
-10	27.9	30
-10	27.9	40
-10	27.9	80
-10	27.9	90
-10	27.9	100
-10	37.2	0
-10	37.2	10
-10	37.2	20
-10	37.2	30
-10	37.2	40
-10	37.2	80
-10	37.2	90
-10	37.2	100
-10	37.2	110
-10	37.2	120
-10	46.5	0
-10	46.5	10
-10	46.5	20
-10	46.5	30
-10	46.5	40
-10	46.5	80
-10	46.5	90
[...]
CELL_DATA	11319
SCALARS density double 1
LOOKUP_TABLE table0
84.9054
281.564
362.365
283.542
364.447
282.451
363.512
285.375
366.34
524.138
546.725
460.21
353.925
292.909
290.071
314.422
332.824
333.567
338.417
83.8084
286.291
367.339
288.689
369.714
289.512
370.283
292.894
373.452
527.771
541.381
447.592
338.014
275.371
272.052
297.621
318.305
321.77
327.534
73.5018
289.786
370.431
290.348
369.049
293.498
374.158
292.483
372.05
520.412
519.878
413.354
300.079
237.658
235.318
264.455
290.245
299.316
307.108
66.852
291.593
365.645
293.742
360.588
293.176
367.891
296.304
362.208
498.208
478.636
357.174
239.684
182.56
183.9
219.153
252.507
269.458
280.182
18.0186
148.838
15.5968
146.182
17.3096
153.344
12.9966
149.967
295.162
353.963
293.534
347.015
297.885
354.335
293.699
345.14
464.099
426.182
287.723
167.636
117.97
125.515
168.54
210.756
236.643
250.704
10.5617
139.919
5.67038
134.532
4.8955
139.654
-2.07313
131.638
290.938
341.968
291.131
341.758
287.326
337.612
284.974
335.753
431.536
378.026
246.945
243.079
227.185
224.053
235.105
231.773
213.772
211.374
102.532
55.4498
70.4215
120.684
171.366
205.692
222.846
2.1495
133.583
0.541406
138.485
-6.89272
130.324
-9.2274
136.42
297.043
347.932
309.508
360.442
290.366
341.435
304.163
355.001
427.316
354.007
208.883
203.987
199.823
195.228
194.022
189.809
184.206
180.301
57.9908
9.8724
28.1968
83.1626
140.044
180.854
200.245
2.09094
148.679
6.90453
160.838
-6.68008
149.963
1.07069
167.132
326.861
377.045
344.684
393.215
324.628
374.115
347.024
393.906
455.091
361.818
196.019
190.702
197.46
191.767
180.444
175.734
182.633
177.386
41.2926
-11.9168
4.67385
60.6338
120.46
164.91
185.321
13.0113
169.406
17.7603
168.838
10.3146
180.411
15.9877
179.254
356.517
403.565
356.342
403.405
363.455
407.893
364.471
409.336
485.838
383.379
203.487
197.946
209.514
203.538
190.045
184.882
197.574
191.78
48.6712
-10.7579
-0.0496446
53.7553
113.425
158.622
178.845
20.7294
158.055
23.5911
140.857
17.7501
161.863
19.6155
138.462
342.74
392.172
320.549
374.392
347.082
396.514
319.429
375.262
486.281
395.4
217.054
211.816
221.871
216.628
206.758
201.712
212.895
207.782
69.0663
6.49502
9.0578
59.4372
116.915
160.719
179.89
62.7246
297.143
357.635
278.367
348.437
292.832
355.585
273.93
345.308
459.438
395.899
225.959
222.13
227.141
226.734
218.284
214.801
220.452
220.324
97.1258
25.8406
24.6731
72.0168
126.982
168.396
186.176
79.628
305.995
429.947
385.102
245.716
113.924
40.3146
39.4941
85.7874
138.987
178.114
194.66
110.554
290.791
405.743
369.966
244.744
118.715
47.4422
49.1455
96.0822
148.699
186.393
202.204
115.774
283.725
396.313
362.35
240.095
116.121
46.5024
49.802
97.6447
150.606
188.229
204.029
82.2587
282.797
364.33
287.408
368.359
280.968
363.1
287.356
368.302
524.904
542.512
450.654
340.692
277.165
272.868
297.619
317.747
320.891
326.644
80.0369
294.422
374.199
300.444
379.027
298.16
376.314
308.937
383.542
532.632
537.342
434.107
320.973
256.847
252.253
278.51
301.285
307.535
314.439
57.9322
300.211
379.912
294.896
376.309
308.843
385.424
296.473
380.673
524.301
510.444
386.707
271.756
212.299
210.176
240.998
269.762
282.416
291.807
47.2709
293.215
370.138
297.5
362.185
289.875
371.883
292.077
359.06
492.482
453.604
343.642
339.622
315.738
313.279
329.305
325.702
300.282
298.324
190.538
144.916
150.436
189.684
227.516
249.22
262.185
17.7213
156.131
10.9734
156.379
35.3676
180.749
16.8706
160.033
298.498
350.674
288.572
336.74
285.555
339.8
265.071
318.329
438.674
381.948
274.063
267.437
240.997
236.301
256.762
250.663
218.127
213.525
141.874
138.351
110.521
108.707
116.473
114.213
81.7617
81.7068
63.6383
81.0901
131.966
180.89
212.915
229.95
-4.2307
137.302
-15.5206
126.883
-19.0373
129.732
-33.1269
125.584
276.175
325.162
271.595
321.266
251.09
302.39
249.449
297.378
381.376
313.309
204.753
197.093
178.822
172.158
175.371
168.353
142.528
136.85
67.8908
63.2749
40.0354
37.2834
33.5809
30.7067
1.76361
1.21382
-18.5324
16.0257
76.7452
137.136
178.915
199.718
-23.7347
127.795
-29.7386
136.52
-45.5586
137.133
-64.4986
151.883
278.062
325.667
294.479
339.986
260.313
296.014
280.869
308.342
363.092
306.697
300.282
300.687
293.316
262.237
256.814
254.403
247.855
156.07
147.412
144.413
135.838
115.241
108.191
100.572
93.6429
11.0965
6.53512
-4.54351
-8.26948
-31.3943
-33.748
-49.1889
-50.4966
-75.2132
-33.0345
34.5176
102.861
152.033
175.529
-26.3931
155.542
-13.1717
180.357
-60.611
174.741
-37.0151
196.029
318.151
361.313
345.269
385.319
301.236
327.307
320.397
351.247
390.375
305.643
297.088
317.379
307.287
259.304
251.47
274.156
264.56
140.7
131.251
144.594
134.402
96.5914
88.6501
102.717
93.5173
-14.7809
-19.3886
-15.9155
-20.7344
-60.4086
-62.6446
-60.9386
-63.5342
-99.5791
-58.4111
10.6547
82.348
135.438
160.07
3.18115
204.381
11.7267
202.189
-3.72047
234.552
9.73281
234.629
369.744
405.668
374.977
412.024
352.681
379.626
372.505
398.409
441.839
332.768
322.699
346.731
336.167
295.765
285.475
316.392
305.126
154.921
144.934
166.11
155.449
117.002
107.218
133.341
122.287
-9.93193
-14.6964
-1.02483
-6.48706
-52.5709
-55.2224
-41.0377
-44.7726
-91.8538
-59.576
6.14575
76.6908
129.985
154.181
11.3946
167.265
10.4709
126.368
1.61028
174.837
-1.62178
111.535
351.695
399.109
314.875
374.073
349.756
393.272
306.892
370.126
474.466
355.412
347.86
356.055
356.615
331.864
323.15
337.837
336.812
178.979
169.501
188.37
179.291
150.704
140.477
163.722
154.239
12.9107
8.48599
21.9698
17.5052
-23.0526
-25.8862
-9.04727
-12.5836
-54.5987
-42.5847
17.9607
83.3176
134.172
156.784
31.0531
284.104
350.938
266.287
338.774
277.706
347.658
266.709
336.42
460.157
370.913
196.503
190.558
199.282
196.939
174.099
168.352
179.626
177.26
44.4115
-19.1876
-16.0595
36.865
97.5096
144.721
165.271
59.4775
309.767
423.259
366.985
210.219
77.1016
6.25534
6.90877
56.405
113.747
157.506
176.169
132.274
257.856
382.125
349.432
213.791
91.1732
19.6864
22.068
71.2042
127.004
168.467
185.877
133.278
247.605
368.145
339.618
208.282
89.7309
19.7928
23.9919
73.9984
129.98
171.168
188.425
65.9647
275.085
358.064
281.796
363.694
265.912
348.644
271.122
353.821
511.116
525.271
425.985
310.685
244.894
239.238
265.564
289.429
297.38
304.986
58.9622
293.924
372.986
307.502
382.507
280.61
363.095
291.804
374.441
521.772
518.233
401.712
282.065
218.622
213.873
242.462
269.714
281.481
290.65
96.361
308.455
387.251
292.402
385.351
294.362
384.838
289.889
393.676
516.907
479.956
369.518
365.294
344.95
341.826
354.822
351.378
329.616
327.074
211.906
159.098
161.795
197.434
232.385
251.98
264.424
79.3088
284.078
377.781
276.349
360.171
301.644
398.666
298.059
387.082
478.934
436.933
430.425
399.409
394.064
419.929
412.597
379.858
373.253
302.461
293.916
269.378
262.546
283.795
275.298
240.386
232.188
161.804
157.682
124.794
122.416
136.2
133.185
97.0977
96.3294
66.048
84.8504
135.315
182.57
213.28
230.391
75.2203
144.551
29.5162
73.6094
-104.408
-59.1964
-158.732
-87.9417
243.787
330.009
208.991
298.942
247.352
353.391
219.127
314.701
391.599
353.422
343.268
308.144
300.469
324.971
312.749
265.458
252.913
223.13
213.39
173.778
162.586
181.482
168.017
117.64
101.838
68.1237
61.1022
24.2304
19.7741
35.713
31.1839
-17.2744
-18.7996
-43.1555
-9.18182
62.9701
127.726
171.21
193.634
41.7714
201.533
269.973
263.824
256.217
220.199
210.194
201.659
186.501
141.305
124.131
122.938
110.559
79.6001
67.8487
54.231
38.3801
-2.31156
-16.8755
-30.8368
-38.5875
-69.9492
-75.3979
-78.9938
-82.7132
-126.492
-127.236
-85.2588
-86.8889
-115.958
-115.951
-129.484
-128.482
-163.332
-160.191
-93.2251
-10.7014
76.512
132.16
159.505
58.4366
216.677
241.236
236.893
246.814
127.338
162.784
138.576
156.425
267.745
280.776
253.823
264.66
178.156
177.78
155.171
154.772
191.237
179.393
177.349
164.582
95.1095
77.8047
69.9364
53.017
45.4647
33.5512
25.8527
13.8508
-46.7219
-60.1496
-73.4234
-86.426
-107.854
-115.212
-129.315
-135.688
-169.778
-171.41
-195.717
-196.041
-155.227
-157.215
-175.435
-176.071
-207.606
-206.391
-230.259
-227.39
-155.528
-62.6772
37.0221
101.874
132.707
50.8736
239.623
256.338
222.273
273.63
122.37
154.64
69.9904
168.96
260.573
274.36
283.817
300.515
154.691
159.801
183.064
194.167
180.953
166.996
200.957
184.954
70.483
52.8413
97.1601
76.4349
21.2374
8.06951
30.8471
15.7446
-79.8453
-94.0389
-66.4934
-83.5567
-141.257
-148.585
-140.411
-148.314
-208.808
-210.003
-206.596
-208.89
-192.108
-193.681
-195.66
-197.21
-248.813
-246.879
-252.324
-250.42
-185.242
-89.7222
14.1824
84.1749
116.375
76.4734
258.325
312.737
320.472
357.589
111.396
228.059
236.319
313.058
320.129
335.91
358.039
378.478
240.376
251.634
306.044
319.026
232.573
214.483
266.335
246.718
143.71
118.038
196.992
167.102
51.4205
34.2546
76.5711
57.6343
-37.6352
-58.5597
-0.663039
-25.0541
-128.421
-136.388
-111.698
-121.01
-191.013
-194.33
-168.673
-174.377
-190.185
-191.9
-183.847
-187.655
-244.953
-243.361
-233.626
-234.765
-180.911
-89.8648
11.4775
80.0998
111.469
26.3339
174.29
-5.12156
95.3252
18.5574
142.596
1.87957
95.5403
328.446
376.461
299.341
366.929
301.768
368.283
305.888
377.42
440.551
294.189
275.842
310.085
296.578
243.256
213.336
273.501
249.981
101.677
82.9082
121.693
104.904
37.1345
11.6109
70.3507
47.5158
-87.4715
-95.5335
-65.9194
-74.6806
-138.885
-144.517
-111.183
-118.249
-172.376
-149.791
-60.1508
23.6318
87.7774
116.671
4.18482
284.632
351.22
288.921
341.128
313.085
367.228
332.577
355.668
465.017
317.663
309.006
315.375
315.313
288.191
274.857
291.144
288.825
136.483
123.789
145.583
135.422
96.5763
80.3418
113.232
101.323
-39.2106
-44.8426
-23.3304
-29.0966
-81.1489
-85.443
-60.3264
-65.2598
-108.807
-94.3092
-27.7327
44.9369
103.154
128.832
2.20903
332.995
409.185
328.858
154.817
148.66
157.28
154.716
124.795
118.505
130.275
127.681
2.52781
-60.537
-54.4932
2.6466
68.4981
121.114
143.755
169.828
132.181
325.457
308.395
148.818
37.8849
-33.4932
-28.5559
25.6386
87.8982
136.583
157.044
156.519
144.974
305.203
295.646
140.486
39.6983
-30.6603
-24.0055
30.7083
92.719
140.708
160.749
44.3205
256.206
335.7
260.376
340.375
249.187
321.348
254.08
326.045
483.157
494.635
388.292
265.811
199.406
193.36
222.444
251.623
266.165
276.316
25.7775
268.46
349.559
280.483
362.833
264.333
335.509
280.062
349.391
494.524
485.082
357.965
225.495
163.946
161.682
194.385
227.982
247.244
259.473
86.6022
290.849
379.704
308.592
402.059
292.568
367.084
310.799
391.69
495.506
440.295
326.77
319.549
300.87
293.955
305.223
299.502
275.297
269.08
185.227
181.348
151.213
148.762
163.681
161.124
128.581
127.543
81.6429
95.3909
139.752
183.652
212.536
229.005
88.8214
130.149
161.773
276.696
85.406
181.346
145.604
334.394
360.653
426.439
404.491
432.233
370.986
421.477
433.931
432.15
461.686
397.925
384.277
352.094
338.141
375.744
361.15
318.858
301.012
254.627
242.265
198.121
182.219
220.937
206.119
151.365
131.282
91.6947
83.6142
47.335
42.3805
64.2989
57.8812
7.2934
3.4255
23.2298
20.9852
-17.8693
-17.7063
-5.04472
-5.52883
-49.0257
-46.6586
-7.89758
61.8616
124.674
167.288
189.757
47.4219
248.863
115.633
354.526
149.54
399.448
192.91
415.417
395.59
402.814
382.198
343.121
431.497
395.057
358.5
308.523
418.389
390.859
335.046
299.991
377.7
347.155
279.38
241.686
287.461
268.048
209.312
186.867
238.479
212.917
139.204
109.706
127.905
108.842
50.7043
31.1977
68.5366
46.3501
-23.5377
-44.6973
-15.1152
-21.255
-80.7249
-86.0718
-68.943
-75.809
-149.086
-155.696
-91.3559
-94.7025
-141.151
-140.739
-129.126
-130.042
-184.287
-180.569
-68.1507
-68.628
-101.072
-99.4443
-97.674
-96.1343
-132.497
-128.605
-34.6748
59.697
118.35
147.657
82.3664
326.365
247.814
150.884
140.585
221.217
190.921
70.9944
76.4551
247.593
215.561
149.997
123.828
164.046
125.994
45.7096
9.02437
123.556
99.6623
40.7891
18.3091
29.4775
0.928495
-78.7532
-102.151
-27.502
-45.265
-99.3928
-114.115
-118.587
-136.062
-207.773
-219.866
-149.045
-153.828
-207.775
-210.111
-227.416
-232.331
-297.603
-299.826
-207.914
-211.171
-251.172
-251.588
-261.359
-260.484
-311.66
-306.783
-163.601
-163.845
-194.983
-192.663
-200.177
-198.051
-234.133
-229.091
-78.2261
-77.8036
-96.6565
-95.092
-102.545
-100.517
-121.971
-118.63
-1.10533
73.2788
108.935
69.6787
84.5169
87.2445
73.3399
56.9302
35.721
-5.54475
13.5973
-68.9225
75.9046
56.1614
29.4754
14.6652
-58.1085
-91.6764
-134.74
-160.173
-26.4807
-45.6343
-67.1095
-83.0814
-171.118
-186.778
-232.004
-240.247
-157.012
-168.705
-192.983
-202.983
-280.89
-287.517
-328.255
-331.329
-257.056
-258.302
-288.821
-288.982
-355.039
-355.259
-393.142
-392.11
-301.664
-304.18
-328.605
-329.366
-368.518
-365.446
-399.395
-394.034
-241.107
-240.292
-261.481
-259.111
-284.412
-280.758
-306.446
-301.014
-137.646
-137.297
-151.365
-149.932
-165.421
-163.212
-179.943
-176.534
-48.1218
38.9397
79.0882
119.061
-9.41225
84.847
-41.1838
69.1354
34.1633
73.1322
83.9187
59.5413
45.9795
42.0122
74.419
-12.1511
-101.782
11.7765
-56.433
19.9285
12.7734
60.719
58.0753
-160.608
-175.632
-105.777
-121.638
-72.0721
-87.7784
-38.1328
-58.9127
-246.701
-252.51
-207.45
-220.27
-202.727
-213.66
-185.993
-200.916
-343.132
-346.493
-324.121
-332.461
-303.221
-304.07
-299.205
-301.903
-409.87
-409.449
-404.614
-406.489
-349.038
-350.831
-352.255
-354.155
-422.199
-417.801
-425.463
-421.214
-283.106
-281.578
-288.204
-286.434
-329.845
-325.218
-335.14
-330.259
-172.583
-171.826
-177.252
-176.185
-202.316
-199.52
-207.131
-204.012
-79.3648
19.944
61.7919
64.1125
-62.5418
57.4972
140.266
52.9822
139.782
54.5255
193.368
236.909
253.765
337.22
300.738
368.481
397.399
497.296
107.729
173.767
270.857
312.549
163.701
110.531
422.289
334.739
153.403
144.196
271.73
246.429
28.0517
-3.51107
205.434
142.084
27.4916
-3.23659
106.493
65.7181
-121.273
-150.464
-11.906
-59.6454
-147.715
-168.855
-97.0278
-124.556
-276.501
-293.599
-211.241
-238.204
-279.316
-284.706
-249.477
-258.316
-380.29
-385.767
-342.82
-352.593
-341.767
-343.698
-325.362
-328.729
-412.592
-408.543
-392.229
-390.217
-284.362
-282.751
-275.51
-274.845
-330.282
-325.623
-320.235
-316.704
-177.641
-176.738
-175.48
-175.584
-207.114
-204.233
-203.389
-201.718
-72.6956
17.6125
58.1529
26.5342
184.184
4.38854
139.968
35.1996
271.793
375.033
259.059
363.833
432.948
552.288
394.812
518.131
-5.68902
226.718
358.678
404.833
350.057
417.389
542.997
482.609
456.827
486.29
374.238
334.424
415.511
394.117
353.276
273.415
410.704
357.865
177.438
133.01
226.733
188.508
90.6343
32.5462
165.783
111.869
-44.0945
-75.6756
3.29962
-28.1764
-141.4
-175.966
-77.6663
-115.124
-213.114
-224.431
-177.06
-189.752
-296.949
-310.2
-247.409
-261.425
-295.21
-296.6
-273.764
-278.786
-355.969
-353.322
-326.987
-329.115
-252.581
-251.929
-238.59
-240.476
-294.352
-290.951
-277.122
-276.831
-166.189
-52.3026
29.606
66.5709
-2.95421
333.025
391.212
343.391
359.374
342.267
422.793
308.636
361.766
460.403
252.746
227.565
259.138
247.765
209.509
171.23
228.148
207.692
41.0177
14.1364
66.9387
46.3114
-25.6964
-60.4159
13.4061
-13.1972
-142.051
-151.681
-114.972
-124.584
-198.395
-207.558
-159.607
-168.052
-232.186
-192.028
-113.377
-21.8014
50.9414
83.245
3.91481
305.969
315.268
183.083
250.722
275.009
304.512
178.486
240.274
383.039
272.213
84.0265
71.1668
92.3405
83.1666
41.1441
26.6095
55.7499
46.658
-83.1547
-89.0325
-63.2346
-69.4981
-122.828
-127.414
-98.3234
-103.68
-150.331
-134.674
-66.9921
11.0149
75.2898
103.094
202.387
32.7113
256.767
253.7
98.6422
92.4931
99.9684
94.5664
63.8418
58.5726
66.1533
61.709
-27.3806
-103.909
-94.5197
-32.9305
38.1641
96.3123
120.739
185.686
71.8538
224.09
237.189
98.8044
93.4585
97.957
92.6302
65.3988
60.9314
64.5133
60.0583
-23.8197
-96.9771
-86.3395
-24.8386
45.3082
102.179
125.835
2.0384
106.752
-2.86752
111.974
-0.752992
99.94
-6.14621
106.29
244.856
307.236
250.986
312.249
240.472
294.719
247.526
300.187
451.648
457.188
344.321
215.445
148.3
142.055
174.383
209.455
231.285
244.202
-11.703
123.557
-17.2494
151.735
-15.0662
122.244
-24.7898
150.913
263.537
321.73
279.24
333.634
261.383
309.9
275.886
319.818
460.313
444.022
309.565
167.575
104.684
103.618
141.23
181.908
209.38
224.891
78.6323
281.184
344.594
274.339
357.171
267.352
323.485
237.922
322.754
442.436
390.531
274.577
265.762
240.565
231.19
256.605
247.941
214.681
204.386
126.352
120.996
91.0992
87.1721
102.948
99.3867
63.8972
61.3953
6.97716
22.8699
76.0376
130.63
169.544
190.256
51.533
98.7976
75.0953
170.012
53.0633
42.876
60.6205
111.535
302.671
372.695
333.906
367.699
244.792
323.341
264.727
306.074
368.886
347.927
330.137
276.621
251.906
316.877
295.703
235.402
206.12
181.719
164.259
102.759
80.1339
146.725
127.198
57.9013
33.133
27.9648
19.8854
-43.7455
-52.6205
-6.98599
-15.7532
-90.6005
-101.304
-56.6101
-59.778
-107.022
-107.164
-85.2676
-85.9209
-139.393
-136.492
-97.7219
-21.6567
62.3894
117.861
145.902
87.1083
135.43
34.1082
-139.296
71.3018
89.7444
71.2846
-109.954
277.392
307.528
109.42
193.883
203.759
236.5
52.2389
118.881
309.65
291.688
191.767
164.956
243.507
233.645
115.03
92.3944
180.033
149.012
60.7806
28.0875
125.258
90.7731
-11.4079
-46.1182
7.5457
-16.3313
-99.837
-121.24
-48.9981
-74.3173
-170.549
-192.113
-128.461
-138.075
-217.844
-225.725
-183.383
-194.032
-281.695
-290.191
-194.122
-198.115
-257.362
-256.65
-232.819
-233.691
-302.101
-297.508
-162.945
-163.231
-202.635
-200.504
-192.919
-190.76
-235.454
-230.415
-82.7442
-82.3216
-108.517
-106.507
-102.066
-100.355
-128.892
-125.412
-13.8256
62.1869
98.5912
28.4249
-5.42246
74.7159
11.4604
-21.9817
-9.07717
2.89386
27.2872
-106.709
56.5513
22.6606
-82.6772
-124.095
-37.4235
-73.3302
-205.727
-251.512
-72.7118
-101.668
-207.942
-227.979
-167.052
-195.857
-328.92
-345.032
-212.309
-227.935
-319.564
-327.264
-299.243
-313.219
-423.58
-427.553
-306.367
-311.884
-388.174
-390.656
-381.199
-387.267
-477.073
-480.196
-342.811
-345.211
-401.09
-399.242
-394.893
-393.123
-459.39
-452.493
-276.153
-276.498
-315.157
-312.482
-313.673
-310.957
-355.82
-349.649
-169.493
-169.753
-193.886
-192.3
-194.528
-192.758
-220.757
-216.803
-89.0962
11.2318
55.4332
50.2947
70.6385
42.3491
-23.2694
44.3094
82.7391
45.547
32.0049
-61.1524
-65.1206
-182.376
-38.4238
-151.892
-149.221
-287.553
-3.493
-125.648
-113.525
-250.104
-74.498
-267.583
-146.038
-191.49
-270.21
-325.531
-256.627
-319.909
-392.185
-464.945
-480.606
-220.973
-260.384
-341.889
-363.867
-391.074
-426.481
-568.717
-569.534
-328.595
-335.665
-414.548
-408.324
-478.733
-476.178
-592.039
-569.559
-409.357
-408.986
-469.637
-463.602
-529.497
-523.451
-602.8
-589.55
-456.121
-456.241
-501.042
-499.349
-559.956
-560.863
-613.303
-611.085
-464.769
-464.945
-500.613
-498.375
-529.413
-524.149
-569.331
-561.115
-370.041
-369.045
-395.186
-392.332
-414.427
-409.785
-441.603
-434.82
-240.775
-240.526
-257.291
-255.731
-269.98
-267.243
-287.491
-283.298
-143.991
-27.0054
22.7097
45.1283
-4.95309
-49.6331
-32.3839
-85.4194
-76.8972
-160.902
-133.114
-221.305
18.6482
-50.4732
-85.1548
-62.491
-59.155
-194.542
-260.493
-233.502
-247.812
-11.1567
-156.761
-283.845
-259.189
-384.142
-269.717
-422.85
-400.702
-550.947
12.0423
-156.311
-27.0966
-285.506
-29.6713
-287.667
-70.9191
-427.792
-368.774
-460.51
-452.286
-474.104
-536.806
-651.264
-647.398
-687.051
-110.417
-117.902
-152.159
-160.099
-242.621
-272.217
-299.424
-324.749
-337.088
-157.868
-154.809
-114.402
-97.8625
-321.819
-330.109
-282.669
-270.352
-229.918
-222.216
-162.106
-153.688
-378.834
-375.491
-307.569
-301.843
-378.582
-433.255
-464.635
-507.492
-521.63
-595.046
-625.34
-689.442
-645.15
-507.87
-525.921
-483.62
-471.216
-677.004
-719.578
-670.351
-676.81
-538.362
-538.502
-469.689
-464.251
-679.779
-696.183
-623.218
-630.042
-398.925
-402.302
-329.028
-346.883
-671.029
-637.383
-610.968
-588.432
-444.668
-431.843
-405.496
-399.863
-641.859
-607.277
-609.517
-579.862
-491.472
-484.713
-472.125
-470.79
-632.689
-617.849
-615.389
-605.569
-520.99
-519.762
-515.102
-516.197
-637.322
-635.323
-631.073
-630.886
-526.269
-525.117
-529.818
-528.862
-597.793
-590.545
-601.773
-594.732
-420.417
-418.486
-425.99
-423.825
-468.471
-462.551
-474.325
-468.141
-280.804
-279.521
-285.831
-284.231
-311.989
-308.031
-317.161
-312.87
-152.405
-151.337