# vtk DataFile Version 3.0
Gravity inversion using rectangular prisms
ASCII
DATASET UNSTRUCTURED_GRID

POINTS	7070	double
-40	-37.2	0
-40	-37.2	20
-40	-37.2	30
-40	-37.2	40
-40	-37.2	60
-40	-37.2	80
-40	-37.2	100
-40	-37.2	120
-40	-37.2	140
-40	-37.2	160
-40	-37.2	180
-40	-37.2	200
-40	-37.2	220
-40	-37.2	240
-40	-27.9	20
-40	-27.9	30
-40	-27.9	40
-40	-18.6	0
-40	-18.6	20
-40	-18.6	30
-40	-18.6	40
-40	-18.6	60
-40	-18.6	80
-40	-18.6	100
-40	-18.6	120
-40	-18.6	140
-40	-18.6	160
-40	-18.6	180
-40	-18.6	200
-40	-18.6	220
-40	-18.6	240
-40	-9.3	20
-40	-9.3	30
-40	-9.3	40
-40	0	0
-40	0	20
-40	0	30
-40	0	40
-40	0	60
-40	0	80
-40	0	100
-40	0	120
-40	0	140
-40	0	160
-40	0	180
-40	0	200
-40	0	220
-40	0	240
-40	9.3	20
-40	9.3	30
-40	9.3	40
-40	18.6	0
-40	18.6	20
-40	18.6	30
-40	18.6	40
-40	18.6	60
-40	18.6	80
-40	18.6	100
-40	18.6	120
-40	18.6	140
-40	18.6	160
-40	18.6	180
-40	18.6	200
-40	18.6	220
-40	18.6	240
-40	27.9	20
-40	27.9	30
-40	27.9	40
-40	37.2	0
-40	37.2	20
-40	37.2	30
-40	37.2	40
-40	37.2	60
-40	37.2	80
-40	37.2	100
-40	37.2	120
-40	37.2	140
-40	37.2	160
-40	37.2	180
-40	37.2	200
-40	37.2	220
-40	37.2	240
-40	55.8	0
-40	55.8	20
-40	55.8	40
-40	55.8	60
-40	55.8	80
-40	55.8	100
-40	55.8	120
-40	55.8	140
-40	55.8	160
-40	55.8	180
-40	55.8	200
-40	55.8	220
-40	55.8	240
-40	74.4	0
-40	74.4	20
-40	74.4	40
-40	74.4	60
-40	74.4	80
-40	74.4	100
-40	74.4	120
-40	74.4	140
-40	74.4	160
-40	74.4	180
-40	74.4	200
-40	74.4	220
-40	74.4	240
-40	93	0
-40	93	20
-40	93	40
-40	93	60
-40	93	80
-40	93	100
-40	93	120
-40	93	140
-40	93	160
-40	93	180
-40	93	200
-40	93	220
-40	93	240
-40	111.6	0
-40	111.6	20
-40	111.6	40
-40	111.6	60
-40	111.6	80
-40	111.6	100
-40	111.6	120
-40	111.6	140
-40	111.6	160
-40	111.6	180
-40	111.6	200
-40	111.6	220
-40	111.6	240
-40	130.2	0
-40	130.2	20
-40	130.2	40
-40	130.2	60
-40	130.2	80
-40	130.2	100
-40	130.2	120
-40	130.2	140
-40	130.2	160
-40	130.2	180
-40	130.2	200
-40	130.2	220
-40	130.2	240
-40	148.8	0
-40	148.8	20
-40	148.8	40
-40	148.8	60
-40	148.8	80
-40	148.8	100
-40	148.8	120
-40	148.8	140
-40	148.8	160
-40	148.8	180
-40	148.8	200
-40	148.8	220
-40	148.8	240
-40	167.4	0
-40	167.4	20
-40	167.4	40
-40	167.4	60
-40	167.4	80
-40	167.4	100
-40	167.4	120
-40	167.4	140
-40	167.4	160
-40	167.4	180
-40	167.4	200
-40	167.4	220
-40	167.4	240
-40	186	0
-40	186	20
-40	186	40
-40	186	60
-40	186	80
-40	186	100
-40	186	120
-40	186	140
-40	186	160
-40	186	180
-40	186	200
-40	186	220
-40	186	240
-40	204.6	0
-40	204.6	20
-40	204.6	40
-40	204.6	60
-40	204.6	80
-40	204.6	100
-40	204.6	120
-40	204.6	140
-40	204.6	160
-40	204.6	180
-40	204.6	200
-40	204.6	220
-40	204.6	240
-40	223.2	0
-40	223.2	20
-40	223.2	40
-40	223.2	60
-40	223.2	80
-40	223.2	100
-40	223.2	120
-40	223.2	140
-40	223.2	160
-40	223.2	180
-40	223.2	200
-40	223.2	220
-40	223.2	240
-30	-37.2	20
-30	-37.2	30
-30	-37.2	40
-30	-27.9	20
-30	-27.9	30
-30	-27.9	40
-30	-18.6	20
-30	-18.6	30
-30	-18.6	40
-30	-9.3	20
-30	-9.3	30
-30	-9.3	40
-30	0	20
-30	0	30
-30	0	40
-30	9.3	20
-30	9.3	30
-30	9.3	40
-30	18.6	20
-30	18.6	30
-30	18.6	40
-30	27.9	20
-30	27.9	30
-30	27.9	40
-30	37.2	20
-30	37.2	30
-30	37.2	40
-20	-37.2	0
-20	-37.2	20
-20	-37.2	30
-20	-37.2	40
-20	-37.2	60
-20	-37.2	80
-20	-37.2	100
-20	-37.2	120
-20	-37.2	140
-20	-37.2	160
-20	-37.2	180
-20	-37.2	200
-20	-37.2	220
-20	-37.2	240
-20	-27.9	20
-20	-27.9	30
-20	-27.9	40
-20	-18.6	0
-20	-18.6	20
-20	-18.6	30
-20	-18.6	40
-20	-18.6	60
-20	-18.6	80
-20	-18.6	100
-20	-18.6	120
-20	-18.6	140
-20	-18.6	160
-20	-18.6	180
-20	-18.6	200
-20	-18.6	220
-20	-18.6	240
-20	-9.3	20
-20	-9.3	30
-20	-9.3	40
-20	0	0
-20	0	20
-20	0	30
-20	0	40
-20	0	60
-20	0	80
-20	0	100
-20	0	120
-20	0	140
-20	0	160
-20	0	180
-20	0	200
-20	0	220
-20	0	240
-20	9.3	20
-20	9.3	30
-20	9.3	40
-20	18.6	0
-20	18.6	20
-20	18.6	30
-20	18.6	40
-20	18.6	60
-20	18.6	80
-20	18.6	100
-20	18.6	120
-20	18.6	140
-20	18.6	160
-20	18.6	180
-20	18.6	200
-20	18.6	220
-20	18.6	240
-20	27.9	20
-20	27.9	30
-20	27.9	40
-20	37.2	0
-20	37.2	20
-20	37.2	30
-20	37.2	40
-20	37.2	60
-20	37.2	80
-20	37.2	100
-20	37.2	120
-20	37.2	140
-20	37.2	160
-20	37.2	180
-20	37.2	200
-20	37.2	220
-20	37.2	240
-20	55.8	0
-20	55.8	20
-20	55.8	40
-20	55.8	60
-20	55.8	80
-20	55.8	100
-20	55.8	120
-20	55.8	140
-20	55.8	160
-20	55.8	180
-20	55.8	200
-20	55.8	220
-20	55.8	240
-20	74.4	0
-20	74.4	20
-20	74.4	40
-20	74.4	60
-20	74.4	80
-20	74.4	100
-20	74.4	120
-20	74.4	140
-20	74.4	160
-20	74.4	180
-20	74.4	200
-20	74.4	220
-20	74.4	240
-20	93	0
-20	93	20
-20	93	40
-20	93	60
-20	93	80
-20	93	100
-20	93	120
-20	93	140
-20	93	160
-20	93	180
-20	93	200
-20	93	220
-20	93	240
-20	111.6	0
-20	111.6	20
-20	111.6	40
-20	111.6	60
-20	111.6	80
-20	111.6	100
-20	111.6	120
-20	111.6	140
-20	111.6	160
-20	111.6	180
-20	111.6	200
-20	111.6	220
-20	111.6	240
-20	130.2	0
-20	130.2	20
-20	130.2	40
-20	130.2	60
-20	130.2	80
-20	130.2	100
-20	130.2	120
-20	130.2	140
-20	130.2	160
-20	130.2	180
-20	130.2	200
-20	130.2	220
-20	130.2	240
-20	148.8	0
-20	148.8	20
-20	148.8	40
-20	148.8	60
-20	148.8	80
-20	148.8	100
-20	148.8	120
-20	148.8	140
-20	148.8	160
-20	148.8	180
-20	148.8	200
-20	148.8	220
-20	148.8	240
-20	167.4	0
-20	167.4	20
-20	167.4	40
-20	167.4	60
-20	167.4	80
-20	167.4	100
-20	167.4	120
-20	167.4	140
-20	167.4	160
-20	167.4	180
-20	167.4	200
-20	167.4	220
-20	167.4	240
-20	186	0
-20	186	20
-20	186	40
-20	186	60
-20	186	80
-20	186	100
-20	186	120
-20	186	140
-20	186	160
-20	186	180
-20	186	200
-20	186	220
-20	186	240
-20	204.6	0
-20	204.6	20
-20	204.6	40
-20	204.6	60
-20	204.6	80
-20	204.6	100
-20	204.6	120
-20	204.6	140
-20	204.6	160
-20	204.6	180
-20	204.6	200
-20	204.6	220
-20	204.6	240
-20	223.2	0
-20	223.2	20
-20	223.2	40
-20	223.2	60
-20	223.2	80
-20	223.2	100
-20	223.2	120
-20	223.2	140
-20	223.2	160
-20	223.2	180
-20	223.2	200
-20	223.2	220
-20	223.2	240
-10	-37.2	20
-10	-37.2	30
-10	-37.2	40
-10	-27.9	20
-10	-27.9	30
-10	-27.9	40
-10	-18.6	20
-10	-18.6	30
-10	-18.6	40
-10	-9.3	20
-10	-9.3	30
-10	-9.3	40
-10	0	20
-10	0	30
-10	0	40
-10	9.3	20
-10	9.3	30
-10	9.3	40
-10	18.6	20
-10	18.6	30
-10	18.6	40
-10	27.9	20
-10	27.9	30
-10	27.9	40
-10	37.2	20
-10	37.2	30
-10	37.2	40
0	-37.2	0
0	-37.2	20
0	-37.2	30
0	-37.2	40
0	-37.2	60
0	-37.2	80
0	-37.2	100
0	-37.2	120
0	-37.2	140
0	-37.2	160
0	-37.2	180
0	-37.2	200
0	-37.2	220
0	-37.2	240
0	-27.9	20
0	-27.9	30
0	-27.9	40
0	-18.6	0
0	-18.6	20
0	-18.6	30
0	-18.6	40
0	-18.6	60
0	-18.6	80
0	-18.6	100
0	-18.6	120
0	-18.6	140
0	-18.6	160
0	-18.6	180
0	-18.6	200
0	-18.6	220
0	-18.6	240
0	-9.3	20
0	-9.3	30
0	-9.3	40
0	0	0
0	0	20
0	0	30
0	0	40
0	0	60
0	0	80
0	0	100
0	0	120
0	0	140
0	0	160
0	0	180
0	0	200
0	0	220
0	0	240
0	9.3	20
0	9.3	30
0	9.3	40
0	18.6	0
0	18.6	20
0	18.6	30
0	18.6	40
0	18.6	60
0	18.6	80
0	18.6	100
0	18.6	120
0	18.6	140
0	18.6	160
0	18.6	180
0	18.6	200
0	18.6	220
0	18.6	240
0	27.9	20
0	27.9	30
0	27.9	40
0	37.2	0
0	37.2	10
0	37.2	20
0	37.2	30
0	37.2	40
0	37.2	60
0	37.2	80
0	37.2	90
0	37.2	100
0	37.2	120
0	37.2	140
0	37.2	160
0	37.2	180
0	37.2	200
0	37.2	220
0	37.2	240
0	46.5	0
0	46.5	10
0	46.5	20
0	46.5	30
0	46.5	40
0	46.5	80
0	46.5	90
0	46.5	100
0	55.8	0
0	55.8	10
0	55.8	20
0	55.8	30
0	55.8	40
0	55.8	60
0	55.8	70
0	55.8	80
0	55.8	90
0	55.8	100
0	55.8	120
0	55.8	140
0	55.8	160
0	55.8	180
0	55.8	200
0	55.8	220
0	55.8	240
0	65.1	60
0	65.1	70
0	65.1	80
0	65.1	90
0	65.1	100
0	74.4	0
0	74.4	20
0	74.4	40
0	74.4	50
0	74.4	60
0	74.4	70
0	74.4	80
0	74.4	90
0	74.4	100
0	74.4	120
0	74.4	140
0	74.4	160
0	74.4	180
0	74.4	200
0	74.4	220
0	74.4	240
0	83.7	40
0	83.7	50
0	83.7	60
0	83.7	70
0	83.7	80
0	83.7	90
0	83.7	100
0	93	0
0	93	20
0	93	30
0	93	40
0	93	50
0	93	60
0	93	70
0	93	80
0	93	90
0	93	100
0	93	120
0	93	140
0	93	160
0	93	180
0	93	200
0	93	220
0	93	240
0	102.3	20
0	102.3	30
0	102.3	40
0	102.3	50
0	102.3	60
0	102.3	70
0	102.3	80
0	102.3	90
0	102.3	100
0	111.6	0
0	111.6	20
0	111.6	30
0	111.6	40
0	111.6	50
0	111.6	60
0	111.6	70
0	111.6	80
0	111.6	90
0	111.6	100
0	111.6	120
0	111.6	140
0	111.6	160
0	111.6	180
0	111.6	200
0	111.6	220
0	111.6	240
0	120.9	20
0	120.9	30
0	120.9	40
0	120.9	60
0	120.9	70
0	120.9	80
0	120.9	90
0	120.9	100
0	130.2	0
0	130.2	10
0	130.2	20
0	130.2	30
0	130.2	40
0	130.2	60
0	130.2	70
0	130.2	80
0	130.2	90
0	130.2	100
0	130.2	120
0	130.2	140
0	130.2	160
0	130.2	180
0	130.2	200
0	130.2	220
0	130.2	240
0	139.5	0
0	139.5	10
0	139.5	20
0	139.5	30
0	139.5	40
0	139.5	60
0	139.5	70
0	139.5	80
0	139.5	90
0	139.5	100
0	148.8	0
0	148.8	10
0	148.8	20
0	148.8	30
0	148.8	40
0	148.8	60
0	148.8	70
0	148.8	80
0	148.8	90
0	148.8	100
0	148.8	120
0	148.8	140
0	148.8	160
0	148.8	180
0	148.8	200
0	148.8	220
0	148.8	240
0	167.4	0
0	167.4	20
0	167.4	40
0	167.4	60
0	167.4	80
0	167.4	100
0	167.4	120
0	167.4	140
0	167.4	160
0	167.4	180
0	167.4	200
0	167.4	220
0	167.4	240
0	186	0
0	186	20
0	186	40
0	186	60
0	186	80
0	186	100
0	186	120
0	186	140
0	186	160
0	186	180
0	186	200
0	186	220
0	186	240
0	204.6	0
0	204.6	20
0	204.6	40
0	204.6	60
0	204.6	80
0	204.6	100
0	204.6	120
0	204.6	140
0	204.6	160
0	204.6	180
0	204.6	200
0	204.6	220
0	204.6	240
0	223.2	0
0	223.2	20
0	223.2	40
0	223.2	60
0	223.2	80
0	223.2	100
0	223.2	120
0	223.2	140
0	223.2	160
0	223.2	180
0	223.2	200
0	223.2	220
0	223.2	240
10	-37.2	20
10	-37.2	30
10	-37.2	40
10	-27.9	20
10	-27.9	30
10	-27.9	40
10	-18.6	20
10	-18.6	30
10	-18.6	40
10	-9.3	20
10	-9.3	30
10	-9.3	40
10	0	20
10	0	30
10	0	40
10	9.3	20
10	9.3	30
10	9.3	40
10	18.6	20
10	18.6	30
10	18.6	40
10	27.9	20
10	27.9	30
10	27.9	40
10	37.2	0
10	37.2	10
10	37.2	20
10	37.2	30
10	37.2	40
10	37.2	80
10	37.2	90
10	37.2	100
10	46.5	0
10	46.5	10
10	46.5	20
10	46.5	30
10	46.5	40
10	46.5	80
10	46.5	90
10	46.5	100
10	55.8	0
10	55.8	10
10	55.8	20
10	55.8	30
10	55.8	40
10	55.8	60
10	55.8	70
10	55.8	80
10	55.8	90
10	55.8	100
10	65.1	60
10	65.1	70
10	65.1	80
10	65.1	90
10	65.1	100
10	74.4	40
10	74.4	50
10	74.4	60
10	74.4	70
10	74.4	80
10	74.4	90
10	74.4	100
10	83.7	40
10	83.7	50
10	83.7	60
10	83.7	70
10	83.7	80
10	83.7	90
10	83.7	100
10	93	20
10	93	30
10	93	40
10	93	50
10	93	60
10	93	70
10	93	80
10	93	90
10	93	100
10	102.3	20
10	102.3	30
10	102.3	40
[...]
CELL_DATA	5509
SCALARS density double 1
LOOKUP_TABLE table0
110.547
292.774
342.215
292.934
343.156
292.385
342.172
292.886
343.463
496.118
528.661
444.341
339.542
281.85
282.295
308.149
326.869
327.504
332.565
111.941
292.905
344.612
292.028
346.064
293.503
345.552
293.455
347.779
494.232
519.819
429.58
321.198
261.84
262.486
290.115
311.48
315.064
321.185
111.914
289.713
346.888
285.286
346.717
291.886
349.266
287.88
349.367
482.781
495.241
395.062
281.719
221.051
223.418
255.345
282.302
291.802
300.141
109.752
278.901
345.544
271.108
344.946
281.546
347.872
273.297
346.36
456.045
451.825
340.923
223.259
163.381
169.647
208.328
243.346
261.065
272.538
105.59
306.589
419.891
397.75
276.555
154.889
97.6236
109.299
156.095
200.388
227.369
242.379
95.2124
300.532
393.282
352.042
218.105
91.2441
35.9948
52.559
106.884
159.895
195.604
213.887
91.959
314.367
392.678
330.491
181.66
46.7554
-9.69722
8.92263
68.1733
127.633
170.071
190.749
100.933
343.509
413.846
336.082
173.457
28.7985
-32.7596
-15.8864
44.6588
107.323
153.599
175.425
115.211
366.713
438.636
354.824
185.683
34.1069
-34.1632
-21.6866
37.0671
99.8324
146.998
168.721
115.544
352.143
438.719
365.84
202.863
51.8462
-21.1775
-13.168
42.3871
103.222
149.035
169.731
110.947
313.329
414.024
362.035
215.103
71.0791
-2.98267
2.58852
55.3182
113.585
156.919
176.175
116.648
293.848
391.318
351.341
220.021
84.9932
13.3111
18.8836
70.1065
126.266
167.086
184.985
127.864
293.292
381.252
342.948
220.41
92.0965
23.9399
30.9586
81.9869
137.009
176.043
193.006
129.951
292.837
378.98
340.525
219.523
92.6868
25.6596
33.4178
84.7479
139.727
178.444
195.244
107.858
291.101
341.792
292.204
343.686
288.261
340.765
290.032
343.357
494.28
524.445
435.819
327.057
266.414
265.5
291.764
312.167
315.153
321.06
110.016
294.043
346.937
295.697
350.666
293.443
348.094
297.625
353.969
495.448
516.222
419.47
306.255
243.841
243.166
271.472
294.871
301.179
308.373
114.354
295.673
353.498
292.37
354.11
300.189
358.992
298.039
360.747
485.914
489.374
379.344
260.038
197.209
198.959
232.435
262.276
275.28
285.139
115.525
285.716
351.615
275.428
346.805
290.593
357.184
277.331
348.826
451.567
436.077
313.873
189.624
130.177
137.698
179.603
218.882
241.238
254.856
109.961
290.992
396.1
363.621
233.805
105.503
52.497
68.4667
120.841
171.136
204.081
221.946
87.9841
273.301
350.645
298.71
157.281
25.9477
-21.0666
3.22756
65.6063
126.344
169.271
191.07
79.2888
293.109
341.705
262.748
108.113
-29.6329
-75.2122
-46.3578
22.7235
91.1225
141.654
166.305
92.7124
325.308
362.578
269.216
99.1498
-49.6911
-100.391
-72.9097
-2.11206
69.802
124.433
150.377
126.613
365.469
407.509
303.339
121.799
-37.3412
-97.2134
-75.9098
-7.96634
63.4006
118.522
144.166
120.288
351.911
421.609
329.914
151.914
-7.44755
-75.2278
-61.2354
1.51977
69.6322
122.49
146.633
99.0409
288.639
392.647
334.916
176.839
25.3789
-46.8846
-37.9211
19.8932
83.8862
133.109
155.191
108.4
267.533
367.67
326.715
189.631
49.8813
-21.8121
-14.4916
40.1658
100.668
146.258
166.355
133.928
281.078
363.813
321.534
194.913
63.7345
-4.99055
3.05601
56.5392
114.933
157.87
176.516
136.506
283.128
364.306
320.569
195.274
65.8715
-1.74704
6.99051
60.6095
118.743
161.137
179.469
101.27
282.939
338.845
285.069
341.99
274.92
336.049
276.897
339.43
483.737
510.267
414.839
300.106
235.368
232.833
260.512
284.497
292.167
299.821
104.089
289.643
348.141
296.34
356.457
281.654
346.559
289.825
357.159
488.813
501.98
394.696
273.996
207.99
206.027
236.364
264.032
275.703
285.036
123.313
302.536
364.64
303.042
368.989
300.148
369.472
307.681
379.218
485.215
470.923
343.852
214.914
150.771
152.835
190.069
225.746
245.488
258.245
119.558
294.792
365.02
272.306
349.453
307.087
379.765
285.28
363.667
444.321
400.136
256.447
123.267
67.0095
78.5384
127.358
174.953
206.023
223.591
57.9893
148.568
39.1794
106.669
6.041
97.82
-16.5936
64.0407
235.541
324.567
200.977
293.923
240.044
329.975
202.321
292.081
356.066
290.443
213.924
209.467
160.558
155.678
168.263
162.763
107.466
101.524
11.6146
-32.0251
-6.22061
57.4676
119.209
163.182
186.193
76.2312
205.35
257.663
258.054
256.225
211.258
206.008
189.221
182.711
132.864
123.413
112.396
106.321
66.6504
61.1114
46.4519
39.4276
-9.28434
-15.4854
-96.4317
-127.413
-86.5373
-8.10735
67.2096
123.369
151.431
85.7762
221.958
266.59
274.826
253.937
261.031
182.262
178.059
163.18
159.269
182.815
176.732
167.222
160.721
89.796
79.8638
66.5082
56.9735
34.2136
28.7945
13.598
8.30661
-52.2306
-58.0474
-78.1526
-83.5793
-173.055
-197.513
-146.939
-58.276
26.9921
92.3212
124.025
80.8668
239.48
274.944
231.888
289.383
177.911
189.426
150.972
205.289
255.879
270.693
266.052
294.55
161.256
166.93
183.005
203.989
170.56
163.787
191.59
184.139
68.4381
59.0859
95.5431
85.031
9.15137
3.27692
19.3751
12.3138
-84.0772
-90.1261
-70.979
-78.654
-197.891
-227.324
-176.94
-85.5784
3.93461
73.877
107.14
123.714
253.154
322.838
295.803
364.596
179.204
258.618
254.586
330.208
311.66
221.124
211.77
256.063
246.108
140.323
127.097
190.066
174.779
38.4271
30.0029
64.71
55.1361
-43.7305
-53.4311
-8.87179
-20.6292
-173.18
-216.266
-175.246
-88.5627
-0.64527
69.1364
101.786
80.4065
189.267
63.2542
165.835
79.2687
193.358
67.6318
173.008
306.366
378.891
285.038
367.706
296.194
374.437
283.578
372.025
381.481
279.388
271.643
289.813
291.086
229.906
216.376
251.788
247.503
87.1415
78.2655
102.688
96.5771
25.141
13.3384
52.9276
43.4171
-122.157
-177.711
-149.636
-71.8424
10.425
76.3575
106.711
73.8908
251.906
361.137
285.864
103.151
-61.3349
-130.11
-112.575
-43.8558
31.3658
91.5954
118.816
74.2038
213.203
329.478
282.839
132.936
-16.1523
-88.018
-75.9415
-13.8106
55.2358
109.782
133.915
147.599
241.799
328.459
281.364
147.127
10.4958
-59.0187
-48.139
10.5911
75.5802
125.85
147.614
149.57
251.696
332.282
281.776
149.325
15.4811
-52.7422
-41.4221
16.9884
81.2428
130.53
151.708
88.7588
264.42
332.394
266.064
335.727
252.471
327.742
253.931
330.756
461.534
483.579
381.474
260.785
192.509
188.67
218.679
247.658
261.692
271.725
88.2655
270.676
343.404
279.981
355.701
258.98
338.867
268.598
351.133
468.739
473.288
355.847
227.319
159.039
156.379
189.893
223.434
242.307
254.493
117.632
295.24
372.325
314.124
388.957
286.85
370.628
311.348
390.189
472.569
434.665
290.533
151.865
88.5985
92.188
134.857
178.376
207.009
223.532
188.823
334.646
398.603
337.4
388.882
347.354
406.926
372.712
402.073
433.497
338.457
244.881
238.359
183.723
176.127
207.716
200.851
139.807
131.605
33.34
-15.9752
1.8617
60.198
118.752
161.142
183.742
208.674
309.652
350.48
269.514
291.883
358.161
352.181
296.228
274.087
376.214
375.013
298.161
289.676
340.419
330.555
248.851
230.447
278.38
270.128
192.413
180.33
220.253
207.844
122.518
106.55
116.278
105.588
41.9565
31.4903
59.0369
47.4948
-31.0907
-42.0845
-23.413
-26.0989
-91.6548
-93.4812
-79.4706
-81.8641
-154.257
-155.517
-141.892
-102.257
-23.2606
53.4168
111.573
141.068
116.539
234.658
217.897
185.944
151.636
221.299
180.826
155.22
90.6724
221.704
210.788
138.736
124.056
143.137
119.554
34.3658
7.66488
110.623
97.3894
33.1378
20.4463
17.0537
1.3941
-85.5011
-97.8523
-33.7932
-43.8562
-103.438
-111.613
-123.656
-132.968
-209.693
-215.721
-156.235
-158.149
-216.978
-216.778
-229.703
-231.006
-298.436
-297.503
-265.566
-201.728
-101.672
-7.286
65.8223
101.743
87.6233
170.797
120.286
149.682
85.234
104.377
11.8417
38.353
-60.7573
77.8347
60.8159
37.2967
24.9186
-61.5234
-85.8967
-131.433
-144.067
-28.8765
-39.6664
-64.7335
-73.1951
-170.611
-177.859
-223.091
-225.314
-158.496
-164.866
-192.265
-197.552
-279.008
-281.663
-322.726
-323.283
-263.645
-262.56
-296.355
-294.32
-353.765
-352.143
-391.002
-388.462
-357.388
-276.312
-161.084
-53.6228
30.6963
71.2542
96.9559
106.025
71.2986
67.6827
96.549
-40.3796
-100.406
-59.3081
-54.4485
29.3865
28.75
70.0761
78.8918
-150.595
-147.641
-91.0091
-84.7041
-66.0209
-73.8424
-31.0311
-41.8796
-230.218
-231.223
-187.833
-194.537
-200.75
-206.646
-184.401
-192.86
-335.269
-336.304
-316.364
-320.912
-310.056
-308.412
-305.947
-305.63
-407.445
-405.42
-402.834
-402.318
-394.759
-311.417
-191.743
-78.8984
10.8065
53.2963
82.4059
56.5622
100.344
176.288
74.3321
78.7699
102.017
302.552
125.96
192.18
260.524
320.068
92.0271
112.286
346.707
326.748
164.295
167.618
285.902
274.393
49.4148
35.8588
218.302
176.042
31.653
14.3885
103.536
79.7568
-105.768
-124.347
-7.88327
-39.1477
-148.513
-160.782
-101.873
-118.027
-271.813
-282.06
-212.218
-228.51
-287.426
-288.999
-256.845
-260.847
-380.061
-381.602
-344.726
-348.922
-374.694
-304.382
-191.412
-81.319
7.50688
49.0406
89.9479
218.796
72.4597
186.682
110.714
380.854
73.4279
254.002
334.672
402.524
312.291
406.009
469.591
459.657
405.553
465.226
359.832
342.842
382.805
383.69
337.231
287.75
375.236
350.158
163.536
138.957
196.798
180.69
78.7485
42.244
136.227
107
-54.1906
-72.3032
-12.4067
-30.173
-149.399
-169.669
-92.7457
-113.975
-223.647
-229.445
-194.088
-203.355
-303.29
-309.313
-260.957
-270.514
-314.912
-265.054
-165.76
-64.2915
18.7074
56.9879
76.6161
249.784
358.414
202.723
304.43
296.583
402.019
230.079
335.717
358.704
205.767
22.2886
7.88459
45.6544
35.5524
-46.7191
-64.9582
-11.5109
-25.4018
-173.486
-241.697
-210.179
-125.626
-35.0257
39.6098
73.4302
75.1145
194.221
307.591
226.715
58.3179
-101.321
-176.239
-156.096
-83.0357
-2.28513
63.987
93.3282
166.316
195.448
287.306
228.728
83.611
-59.1022
-130.291
-114.59
-48.2269
25.684
85.5228
111.317
168.133
203.225
286.81
228.37
87.5474
-50.8577
-119.785
-104.137
-38.8154
33.6573
91.917
116.773
76.6571
269.611
433.476
449.76
341.956
215.997
144.889
139.835
172.364
206.747
227.737
240.317
74.5993
281.793
439.037
436.323
311.197
175.377
105.549
102.245
139.093
178.882
205.519
220.708
98.4567
303.824
434.575
387.229
231.586
83.6369
22.3866
27.3878
75.5698
127.247
165.285
185.69
116.039
329.788
367.071
336.187
327.2
259.016
245.406
303.751
293.538
221.004
205.622
171.109
160.659
92.4613
80.3713
134.492
123.124
48.2168
34.9906
18.6922
14.1295
-55.0014
-59.2506
-18.1209
-22.379
-96.5887
-100.54
-102.405
-78.6407
-10.7544
59.021
113.194
140.91
88.3058
307.863
303.156
209.542
204.975
207.823
231.501
102.507
121.088
288.946
281.247
175.105
156.699
227.524
226.25
98.3829
85.6624
163.571
146.339
46.4902
28.4478
111.951
92.9914
-23.237
-42.1385
-0.943931
-14.6824
-106.365
-118.344
-56.347
-70.7537
-175.686
-187.653
-135.656
-141.465
-220.888
-224.694
-186.791
-192.328
-282.478
-285.907
-255.558
-202.042
-107.656
-15.7017
57.0827
93.125
53.2863
123.873
92.3653
71.0625
-20.0657
18.6613
-8.49867
-43.5834
-149.273
42.347
17.0299
-97.2612
-125.403
-58.4427
-78.7852
-230.292
-251.558
-83.3348
-98.7337
-212.558
-221.461
-175.637
-190.032
-330.274
-335.248
-215.825
-224.189
-318.982
-322.064
-300.861
-307.84
-420.303
-420.439
-306.591
-309.973
-384.15
-385.57
-377.543
-380.911
-463.405
-466.904
-409.001
-321.044
-198.942
-85.0431
5.55983
49.4071
91.3523
24.4204
71.0985
-50.2531
69.6175
-49.0224
30.7611
-179.418
-8.58994
-140.153
-139.533
-262.645
-167.895
-315.43
-366.017
-490.308
-230.761
-251.283
-336.555
-336.6
-403.392
-410.543
-547.821
-525.711
-323.209
-323.22
-395.661
-387.436
-466.257
-458.898
-560.073
-541.6
-403.715
-401.455
-458.912
-453.225
-520.094
-513.527
-587.099
-576.225
-446.812
-448.336
-488.244
-489.23
-533.346
-541.498
-574.92
-583.626
-525.225
-410.69
-267.851
-137.521
-33.5202
16.0024
37.8166
-150.152
-4.86361
-191.125
-32.6532
-363.775
-89.2315
-438.856
-271.23
-334.499
-268.006
-270.407
-551.21
-599.954
-558.392
-543.888
-374.554
-353.867
-303.063
-284.992
-611.65
-562.824
-545.019
-499.127
-412.61
-402.085
-366.972
-364.249
-590.745
-568.399
-548.714
-533.964
-477.221
-471.702
-457.459
-456.256
-612.331
-601.555
-593.765
-587.629
-507.598
-509.32
-502.749
-506.105
-598.464
-608.444
-593.719
-605.102
-572.865
-451.991
-302.225
-165.056
-54.7739
-2.86938
14.0982
44.6201
251.582
589.763
-69.5161
-184.728
204.671
466.79
5.02117
-30.0757
439.54
280.986
-245.258
-275.117
251.392
82.1947
-120.386
-139.676
103.191
35.599
-345.257
-343.353
-87.4487
-144.332
-268.959
-283.295
-146.107
-179.823
-443.417
-447.125
-302.907
-329.57
-405.716
-411.997
-334.047
-348.649
-537.532
-539.541
-456.896
-468.292
-476.398
-481.782
-437.219
-444.836
-561.72
-573.996
-523.798
-536.819
-545.327
-440.4
-298.827
-165.313
-56.5347
-5.87386
330.691
739.975
96.417
435.248
309.023
679.531
90.0424
407.799
628.976
471.864
514.629
491.137
510.741
329.278
451.85
401.272
268.398
184.506
330.222
273.884
121.683
37.9591
229.299
166.352
-30.8214
-76.394
55.9642
10.0984
-162.936
-206.536
-49.4634
-98.5025
-256.143
-277.081
-183.663
-207.538
-366.1
-385.025
-277.834
-301.149
-389.777
-397.816
-337.138
-346.781
-476.758
-485.105
-414.922
-423.548
-463.828
-387.374
-264.176
-142.199
-41.2035
5.24975
74.4773
356.568
430.013
272.819
364.896
353.882
401.541
293.539
361.698
317.06
114.423
76.1619
145.827
122.491
29.9885
-13.5062
80.0051
50.7096
-123.915
-146.962
-80.5579
-100.373
-201.158
-225.155
-139.563
-161.068
-283.044
-291.668
-237.634
-248.814
-353.357
-362.348
-297.273
-309.574
-362.824
-313.86
-211.452
-104.314
-14.4451
26.187
82.2694
242.149
291.434
162.485
-39.2643
-185.64
-271.266
-240.991
-155.629
-62.2803
16.3218
51.0326
198.529
145.717
237.19
169.607
13.2974
-131.502
-206.058
-184.46
-109.723
-26.2848
43.5031
73.4274
192.48
131.638
224.81
166.861
20.6088
-120.537
-190.697
-169.87
-97.0809
-15.8875
51.6589
80.2695
65.5809
254.599
410.271
419.331
305.714
175.025
100.619
93.7747
128.065
167.12
194.463
209.251
63.3863
272.464
419.736
406.127
272.239
130.078
57.1589
52.2459
91.3432
136.385
169.972
187.71
89.4884
296.523
419.198
353.613
231.638
224.573
177.242
168.092
214.72
207.193
159.297
149.224
28.2564
-35.0608
-30.6085
21.262
79.5643
125.78
149.405
78.6814
248.106
328.883
219.517
290.474
272.024
337.757
238.249
307.594
362.939
383.35
299.359
310.299
363.642
389.169
308.704
322.607
283.35
270.758
194.492
175.878
273.514
256.371
183.646
159.136
105.179
90.8445
12.4104
-3.56977
84.362
68.2412
-12.8467
-31.2929
-51.5606
-57.8458
-136.245
-142.454
-79.7878
-86.1014
-168.002
-174.433
-174.674
-148.587
-74.1466
4.55605
68.7225
100.611
81.0243
154.265
201.095
59.3692
80.2892
167.083
230.912
82.2072
112.308
198.254
196.123
55.8605
42.4669
215.598
202.758
69.4285
40.925
76.1778
53.4986
-72.5415
-95.0622
62.1195
32.0572
-93.5452
-124.404
-101.044
-117.685
-231.54
-245.069
-131.93
-151.325
-269.715
-286.055
-233.325
-240.903
-336.619
-342.259
-269.707
-277.644
-378.106
-384.448
-348.515
-286.9
-181.594
-77.6207
7.41956
48.7591
62.862
-29.011
-67.0304
-139.433
-244.116
-9.71954
-48.1145
-159.629
-255.794
-121.77
-142.248
-324.338
-341.765
-121.885
-157.326
-347.888
-376.369
-242.715
-259.723
-418.404
-424.214
-274.377
-300.111
-463.916
-478.626
-369.647
-377.097
-502.837
-502.536
-416.576
-426.653
-559.408
-561.822
-438.692
-445.557
-531.901
-544.775
-483.96
-492.248
-576.296
-591.873
-525.995
-421.461
-283.12
-153.819
-48.6662
1.62057
32.4454
-144.534
-30.2483
-341.218
-6.48957
-214.584
-61.6753
-395.111
-325.151
-456.837
-568.243
-672.678
-381.295
-499.74
-626.812
-732.737
-533.952
-530.785
-712.481
-674.398
-583.365
-587.614
-783.753
-753.079
-576.196
-567.983
-689.683
-669.672
-636.29
-638.594
-762.97
-758.183
-615.646
-608.886
-693.226
-682.923
-681.473
-678.955
-766.495
-764.634
-748.539
-664.424
-523.701
-359.748
-211.156
-90.8333
-33.9602
-93.6547
-540.329
-140.185
-628.38
-98.4709
-538.893
-113.098
-584.417
-773.483
-811.01
-806.039
-781.813
-807.001
-879.202
-834.907
-871.896
-803.196
-734.677
-757.401
-687.144
-893.657
-834.15
-871.771
-806.889
-736.156
-711.878
-704.911
-685.349
-822.971
-819.733
-806.144
-803.465
-725.27
-716.641
-709.396
-705.503
-802.789
-809.425
-789.883
-801.591
-806.461
-723.146
-570.913
-397.296
-240.398
-112.992
-53.3345
-138.049
-476.668
-42.5043
-84.1064
-99.3936
-485.544
-52.3565
-264.354
-573.654
-554.087
-170.224
-217.55
-674.31
-696.694
-387.154
-418.292
-572.69
-538.863
-313.677
-333.506
-717.601
-676.648
-481.305
-479.98
-604.233
-597.977
-456.422
-471.454
-724.749
-718.311
-578.837
-586.425
-651.342
-654.568
-567.186
-578.689
-729.111
-745.03
-651.685
-672.302
-722.057
-691.753
-556.526
-391.506
-238.687
-113.211
-54.9931
31.7865
152.06
30.1629
126.578
-5.80362
-75.1379
19.5455
-1.0491
119.822
58.2939
200.386
198.554
-126.266
-148.689
30.699
43.5803
-75.2995
-128.774
86.5954
34.6693
-237.76
-267.881
-40.9457
-81.9287
-298.481
-332.716
-160.528
-204.657
-411.115
-436.681
-254.369
-292.515
-468.46
-485.696
-366.584
-388.343
-554.888
-572.79
-442.253
-462.478
-570.516
-582.757
-489.559
-500.646
-623.451
-642.344
-545.13
-561.758
-593.112
-492.703
-349.36
-210.261
-94.1317
-40.875
56.9726
239.088
179.577
150.595
230.527
223.294
94.5384
58.9738
173.689
154.353
-57.0309
-99.8808
10.6774
-21.6129
-127.983
-168.952
-37.4652
-71.327
-273.525
-297.154
-193.915
-216.234
-335.752
-358.363
-243.83
-266.274
-418.968
-429.891
-357.444
-372.363
-472.575
-484.401
-401.384
-416.586
-468.556
-403.498
-285.839
-164.834
-62.129
-15.8404
96.2469
231.662
256.892
86.64
-125.113
-141.922
-76.5212
-89.4972
-168.903
-187.75
-113.083
-128.379
-264.946
-353.648
-314.146
-218.417
-114.615
-25.6528
13.4329
204.701
18.3936
175.643
116.495
-38.1948
-193.379
-270.504
-244.055
-162.633
-71.5036
6.52585
39.7376
202.129
8.24918
155.516
113.52
-31.0643
-178.817
-250.496
-225.662
-147.091
-58.951
16.2294
47.798
54.6641
241.696
394.984
398.096
279.564
144.36
66.0112
56.4758
91.1333
133.279
165.42
181.691
50.4385
269.115
412.865
387.77
246.107
98.0629
20.9277
13.0884
52.6008
100.916
139.56
158.942
97.5383
350.17
442.829
342.67
201.301
192.17
145.596
133.55
190.85
181.543
135.591
123.028
-7.51606
-74.9489
-73.606
-20.9213
41.1717
93.012
118.615
59.8942
166.454
58.5992
174.319
72.0355
235.926
75.2856
269.191
351.582
377.122
354.727
381.181
428.463
415.808
491.767
448.085
418.895
272.769
249.817
185.478
153.686
272.703
247.023
189.469
153.701
70.1402
51.7147
-28.2405
-49.5723
61.1496
41.688
-35.9966
-59.0392
-100.516
-108.144
-191.504
-199.529
-114.511
-122.382
-205.921
-214.447
-220.706
-197.336
-121.125
-37.6111
33.0583
67.4131
107.295
316.623
332
244.578
224.575
527.261
431.223
475.368
341.334
279.628
236.998
132.501
72.6036
335.237
267.837
196.386
109.72
66.0342
26.6666
-89.7695
-131.812
75.8658
30.3655
-74.5027
-124.821
-149.106
-171.873
-289.797
-309.992
-155.431
-180.662
-294.976
-318.488
-295.633
-305.227
-406.961
-415.219
-310.334
-320.696
-422.093
-431.486
-403.695
-342.993
-234.115
-123.9
-31.19
13.2211
85.3634
128.074
54.6883
-59.1264
-174.315
312.789
170.944
86.7816
-64.1392
-64.1382
-130.121
-302.415
-358.313
5.69956
-87.2668
-229.998
-312.476
-273.244
-311.892
-467.862
-497.559
-253.442
-302.658
-445.142
-487.791
-440.641
-455.124
-588.226
-596.234
-445.12
-463.92
-592.561
-606.114
-516.261
-526.896
-614.656
-633.533
-531.708
-543.833
-629.443
-650.02
-592.869
-485.55
-341.046
-203.781
-89.7826
-35.7669
6.35216
-148.3
-31.4792
-280.556
33.2628
-27.6996
8.45124
-118.609
-292.291
-430.821
-512.806
-660.211
-147.544
-315.813
-340.309
-530.42
-549.312
-580.607
-757.279
-758.136
-472.899
-533.522
-676.133
-712.386
-645.097
-667.471
-771.397
-800.927
-620.67
-658.862
-747.326
-794.705
-714.858
-721.467
-802.549
-819.698
-719.204
-733.041
-806.387
-832.43
-833.611
-743.25
-594.689
-421.751
-263.569
-133.44
-72.3364
-49.3124
-359.963
-47.7739
-360.177
1.0008
-159.521
2.25333
-148.326
-652.014
-798.824
-663.163
-801.686
-451.588
-656.878
-455.056
-663.852
-875.669
-853.927
-871.683
-844.469
-794.293
-814.013
-800.52
-816.483
-918.765
-921.585
-906.662
-809.884
-645.576
-460.838
-293.329
-155.661
-91.5305
-31.0033
-279.139
-6.88351
-153.683
12.2104
-89.7693
22.9832
-23.4818
-541.235
-666.732
-335.864
-441.517
-358.056
-554.915
-200.803
-367.552
-746.979
-733.983
-540.159
-553.2
-697.559
-723.134
-516.933
-559.793
-799.686
-800.754
-653.493
-662.231
-815.43
-825.103
-675.122
-689.813
-802.839
-833.808
-779.162
-630.06
-453.291
-289.84
-154.345
-91.7586
70.9505
-121.496
-197.311
57.3126
14.5883
-24.0701
-151.969
147.248
52.9521
-308.614
-345.598
-100.419