# vtk DataFile Version 3.0
Gravity inversion using rectangular prisms
ASCII
DATASET UNSTRUCTURED_GRID

POINTS	1445	double
100	100	100
100	100	300
100	100	500
100	100	700
100	100	900
100	300	100
100	300	300
100	300	500
100	300	700
100	300	900
100	500	100
100	500	300
100	500	500
100	500	700
100	500	900
100	700	100
100	700	300
100	700	500
100	700	700
100	700	900
100	900	100
100	900	300
100	900	500
100	900	700
100	900	900
100	1100	100
100	1100	300
100	1100	500
100	1100	700
100	1100	900
100	1300	100
100	1300	300
100	1300	500
100	1300	700
100	1300	900
100	1500	100
100	1500	300
100	1500	500
100	1500	700
100	1500	900
100	1700	100
100	1700	300
100	1700	500
100	1700	700
100	1700	900
100	1900	100
100	1900	300
100	1900	500
100	1900	700
100	1900	900
300	100	100
300	100	300
300	100	500
300	100	700
300	100	900
300	300	100
300	300	300
300	300	500
300	300	700
300	300	900
300	500	100
300	500	300
300	500	500
300	500	700
300	500	900
300	700	100
300	700	300
300	700	500
300	700	700
300	700	900
300	900	100
300	900	300
300	900	500
300	900	700
300	900	900
300	1100	100
300	1100	300
300	1100	500
300	1100	700
300	1100	900
300	1300	100
300	1300	300
300	1300	500
300	1300	700
300	1300	900
300	1500	100
300	1500	300
300	1500	500
300	1500	700
300	1500	900
300	1700	100
300	1700	300
300	1700	500
300	1700	700
300	1700	900
300	1900	100
300	1900	300
300	1900	500
300	1900	700
300	1900	900
500	100	100
500	100	300
500	100	500
500	100	700
500	100	900
500	300	100
500	300	300
500	300	500
500	300	700
500	300	900
500	500	100
450	450	250
450	450	350
450	550	250
450	550	350
550	450	250
550	450	350
550	550	250
550	550	350
450	450	450
450	450	550
450	550	450
450	550	550
550	450	450
550	450	550
550	550	450
550	550	550
500	500	700
500	500	900
500	700	100
450	650	250
450	650	350
450	750	250
450	750	350
550	650	250
550	650	350
550	750	250
550	750	350
450	650	450
450	650	550
450	750	450
450	750	550
550	650	450
550	650	550
550	750	450
550	750	550
500	700	700
500	700	900
500	900	100
450	850	250
450	850	350
450	950	250
450	950	350
550	850	250
550	850	350
550	950	250
550	950	350
450	850	450
450	850	550
450	950	450
450	950	550
550	850	450
550	850	550
550	950	450
550	950	550
500	900	700
500	900	900
500	1100	100
500	1100	300
500	1100	500
500	1100	700
500	1100	900
500	1300	100
500	1300	300
500	1300	500
500	1300	700
500	1300	900
500	1500	100
500	1500	300
500	1500	500
500	1500	700
500	1500	900
500	1700	100
500	1700	300
500	1700	500
500	1700	700
500	1700	900
500	1900	100
500	1900	300
500	1900	500
500	1900	700
500	1900	900
700	100	100
700	100	300
700	100	500
700	100	700
700	100	900
700	300	100
650	250	250
650	250	350
650	350	250
650	350	350
750	250	250
750	250	350
750	350	250
750	350	350
650	250	450
650	250	550
650	350	450
650	350	550
750	250	450
750	250	550
750	350	450
750	350	550
700	300	700
700	300	900
700	500	100
650	450	250
650	450	350
650	550	250
650	550	350
750	450	250
750	450	350
750	550	250
750	550	350
650	450	450
650	450	550
650	550	450
650	550	550
750	450	450
750	450	550
750	550	450
750	550	550
700	500	700
700	500	900
650	650	50
650	650	150
650	750	50
650	750	150
750	650	50
750	650	150
750	750	50
750	750	150
650	650	250
650	650	350
650	750	250
650	750	350
750	650	250
750	650	350
750	750	250
750	750	350
650	650	450
650	650	550
650	750	450
650	750	550
750	650	450
750	650	550
750	750	450
750	750	550
700	700	700
700	700	900
700	900	100
650	850	250
650	850	350
650	950	250
650	950	350
750	850	250
750	850	350
750	950	250
750	950	350
650	850	450
650	850	550
650	950	450
650	950	550
750	850	450
750	850	550
750	950	450
750	950	550
700	900	700
700	900	900
700	1100	100
700	1100	300
650	1050	450
650	1050	550
650	1150	450
650	1150	550
750	1050	450
750	1050	550
750	1150	450
750	1150	550
700	1100	700
700	1100	900
700	1300	100
700	1300	300
700	1300	500
700	1300	700
700	1300	900
700	1500	100
700	1500	300
700	1500	500
700	1500	700
700	1500	900
700	1700	100
700	1700	300
700	1700	500
700	1700	700
700	1700	900
700	1900	100
700	1900	300
700	1900	500
700	1900	700
700	1900	900
900	100	100
900	100	300
900	100	500
900	100	700
900	100	900
900	300	100
850	250	250
850	250	350
850	350	250
850	350	350
950	250	250
950	250	350
950	350	250
950	350	350
900	300	500
900	300	700
900	300	900
850	450	50
850	450	150
850	550	50
850	550	150
950	450	50
950	450	150
950	550	50
950	550	150
850	450	250
850	450	350
850	550	250
850	550	350
950	450	250
925	425	325
925	425	375
925	475	325
925	475	375
975	425	325
975	425	375
975	475	325
975	475	375
950	550	250
950	550	350
850	450	450
850	450	550
850	550	450
850	550	550
950	450	450
950	450	550
950	550	450
950	550	550
900	500	700
900	500	900
850	650	50
850	650	150
850	750	50
850	750	150
950	650	50
950	650	150
950	750	50
950	750	150
850	650	250
850	650	350
850	750	250
850	750	350
925	625	225
925	625	275
925	675	225
925	675	275
975	625	225
975	625	275
975	675	225
975	675	275
925	625	325
925	625	375
925	675	325
925	675	375
975	625	325
975	625	375
975	675	325
975	675	375
925	725	225
925	725	275
925	775	225
925	775	275
975	725	225
975	725	275
975	775	225
975	775	275
925	725	325
925	725	375
925	775	325
925	775	375
975	725	325
975	725	375
975	775	325
975	775	375
850	650	450
850	650	550
850	750	450
850	750	550
950	650	450
950	650	550
950	750	450
950	750	550
850	650	650
850	650	750
850	750	650
850	750	750
950	650	650
950	650	750
950	750	650
950	750	750
900	700	900
850	850	50
850	850	150
850	950	50
850	950	150
950	850	50
950	850	150
950	950	50
950	950	150
850	850	250
850	850	350
850	950	250
850	950	350
950	850	250
950	850	350
950	950	250
950	950	350
850	850	450
850	850	550
850	950	450
850	950	550
950	850	450
950	850	550
950	950	450
950	950	550
850	850	650
850	850	750
850	950	650
850	950	750
950	850	650
950	850	750
950	950	650
950	950	750
900	900	900
900	1100	100
850	1050	250
850	1050	350
850	1150	250
850	1150	350
950	1050	250
950	1050	350
950	1150	250
950	1150	350
850	1050	450
850	1050	550
850	1150	450
850	1150	550
950	1050	450
950	1050	550
950	1150	450
950	1150	550
900	1100	700
900	1100	900
900	1300	100
850	1250	250
850	1250	350
850	1350	250
850	1350	350
950	1250	250
950	1250	350
950	1350	250
950	1350	350
850	1250	450
850	1250	550
850	1350	450
850	1350	550
950	1250	450
950	1250	550
950	1350	450
950	1350	550
900	1300	700
900	1300	900
900	1500	100
850	1450	250
850	1450	350
850	1550	250
850	1550	350
950	1450	250
950	1450	350
950	1550	250
950	1550	350
850	1450	450
850	1450	550
850	1550	450
850	1550	550
950	1450	450
950	1450	550
950	1550	450
950	1550	550
900	1500	700
900	1500	900
900	1700	100
900	1700	300
900	1700	500
900	1700	700
900	1700	900
900	1900	100
900	1900	300
900	1900	500
900	1900	700
900	1900	900
1100	100	100
1100	100	300
1100	100	500
1100	100	700
1100	100	900
1100	300	100
1100	300	300
1100	300	500
1100	300	700
1100	300	900
1100	500	100
1050	450	250
1050	450	350
1050	550	250
1050	550	350
1150	450	250
1150	450	350
1150	550	250
1150	550	350
1050	450	450
1050	450	550
1050	550	450
1050	550	550
1150	450	450
1150	450	550
1150	550	450
1150	550	550
1100	500	700
1100	500	900
1050	650	50
1050	650	150
1050	750	50
1050	750	150
1150	650	50
1150	650	150
1150	750	50
1150	750	150
1050	650	250
1025	625	325
1025	625	375
1025	675	325
1025	675	375
1075	625	325
1075	625	375
1075	675	325
1075	675	375
1050	750	250
1025	725	325
1025	725	375
1025	775	325
1025	775	375
1075	725	325
1075	725	375
1075	775	325
1075	775	375
1125	625	225
1125	625	275
1125	675	225
1125	675	275
1175	625	225
1175	625	275
1175	675	225
1175	675	275
1125	625	325
1125	625	375
1125	675	325
1125	675	375
1175	625	325
1175	625	375
1175	675	325
1175	675	375
1125	725	225
1125	725	275
1125	775	225
1125	775	275
1175	725	225
1175	725	275
1175	775	225
1175	775	275
1125	725	325
1125	725	375
1125	775	325
1125	775	375
1175	725	325
1175	725	375
1175	775	325
1175	775	375
1050	650	450
1050	650	550
1050	750	450
1050	750	550
1150	650	450
1150	650	550
1150	750	450
1150	750	550
1100	700	700
1100	700	900
1100	900	100
1050	850	250
1050	850	350
1050	950	250
1050	950	350
1150	850	250
1150	850	350
1150	950	250
1150	950	350
1050	850	450
1050	850	550
1050	950	450
1050	950	550
1150	850	450
1150	850	550
1150	950	450
1150	950	550
1100	900	700
1100	900	900
1100	1100	100
1050	1050	250
1050	1050	350
1050	1150	250
1050	1150	350
1150	1050	250
1150	1050	350
1150	1150	250
1150	1150	350
1100	1100	500
1100	1100	700
1100	1100	900
1050	1250	50
1050	1250	150
1050	1350	50
1050	1350	150
1150	1250	50
1150	1250	150
1150	1350	50
1150	1350	150
1025	1225	225
1025	1225	275
1025	1275	225
1025	1275	275
1075	1225	225
1075	1225	275
1075	1275	225
1075	1275	275
1025	1225	325
1025	1225	375
1025	1275	325
1025	1275	375
1075	1225	325
1075	1225	375
1075	1275	325
1075	1275	375
1050	1350	250
1050	1350	350
1150	1250	250
1125	1225	325
1125	1225	375
1125	1275	325
1125	1275	375
1175	1225	325
1175	1225	375
1175	1275	325
1175	1275	375
1150	1350	250
1150	1350	350
1050	1250	450
1050	1250	550
1050	1350	450
1050	1350	550
1150	1250	450
1150	1250	550
1150	1350	450
1150	1350	550
1100	1300	700
1100	1300	900
1050	1450	50
1050	1450	150
1050	1550	50
1050	1550	150
1150	1450	50
1150	1450	150
1150	1550	50
1150	1550	150
1050	1450	250
1050	1450	350
1025	1525	225
1025	1525	275
1025	1575	225
1025	1575	275
1075	1525	225
1075	1525	275
1075	1575	225
1075	1575	275
1025	1525	325
1025	1525	375
1025	1575	325
1025	1575	375
1075	1525	325
1075	1525	375
1075	1575	325
1075	1575	375
1150	1450	250
1150	1450	350
1150	1550	250
1125	1525	325
1125	1525	375
1125	1575	325
1125	1575	375
1175	1525	325
1175	1525	375
1175	1575	325
1175	1575	375
1050	1450	450
1050	1450	550
1050	1550	450
1050	1550	550
1150	1450	450
1150	1450	550
1150	1550	450
1150	1550	550
1100	1500	700
1100	1500	900
1100	1700	100
1050	1650	250
1050	1650	350
1050	1750	250
1050	1750	350
1150	1650	250
1150	1650	350
1150	1750	250
1150	1750	350
1100	1700	500
1100	1700	700
1100	1700	900
1100	1900	100
1100	1900	300
1100	1900	500
1100	1900	700
1100	1900	900
1300	100	100
1300	100	300
1300	100	500
1300	100	700
1300	100	900
1300	300	100
1250	250	250
1250	250	350
1250	350	250
1250	350	350
1350	250	250
1350	250	350
1350	350	250
1350	350	350
1250	250	450
1250	250	550
1250	350	450
[...]
CELL_DATA	1445
SCALARS model double 1
LOOKUP_TABLE table0
-0.642331
12.8678
-6.3106
-9.16312
-12.0712
-0.317784
3.4975
-5.28076
-8.03391
-10.7603
-0.204255
1.80183
-5.58063
-7.09601
-9.11572
-0.581407
-1.17795
-8.09291
-6.62166
-8.20328
0.425212
0.285975
-5.62614
-6.10518
-7.16569
0.0870572
-0.865647
-2.4435
-3.13674
-3.91768
0.115048
-2.78986
-0.881496
-1.21665
-1.71745
0.529314
-15.5048
0.849022
0.2798
-0.388028
0.0921123
1.207
2.28248
-0.135278
-1.21868
0.382242
-8.6234
-3.22107
-1.49386
-2.05765
-0.442426
-1.12437
-7.94364
-10.1014
-12.9486
0.42149
-4.35927
-5.44916
-8.06307
-10.4456
-0.111443
-15.5883
-5.13484
-5.79504
-7.35157
-1.56926
8.2783
4.24875
-2.96922
-3.77375
1.43216
-29.1915
-1.81351
-2.69011
-3.38923
1.60464
-15.0488
-1.93741
-2.53004
-3.32157
0.596077
-3.15567
-0.50425
-1.10898
-1.53034
-1.24728
11.2148
0.277419
-0.546146
-1.23274
-0.636466
1.72723
0.38492
-0.926388
-1.88139
0.342543
-0.0694993
-1.26608
-1.8548
-2.50502
-1.47109
21.597
-11.1757
-10.5644
-13.6592
0.138455
-13.3978
-5.66764
-8.03118
-10.3462
0.736818
0.289972
39.7653
26.2553
46.7134
24.7616
44.9978
54.8397
66.4602
60.9172
72.2683
62.4728
72.5847
61.6642
72.5166
67.1462
73.0035
21.0822
26.9151
2.48705
41.6281
58.8862
41.6712
58.8395
87.533
93.0973
87.7774
93.09
74.9866
73.0676
74.9902
73.0862
77.4704
73.6755
77.4742
73.6917
21.4759
27.4976
3.51486
5.34152
24.9282
-9.99957
20.8327
44.7252
36.8788
11.6514
24.7886
53.6075
63.7476
52.2783
63.1699
54.7057
64.1538
52.7385
63.4196
21.2999
27.1426
2.46854
-6.62977
0.257076
0.394347
0.20953
-1.03336
-11.8546
0.32046
0.214247
-0.0600216
-0.408827
-12.7921
0.102581
-0.050038
-0.391134
0.558474
-8.01176
-0.828842
-1.17075
-1.56012
0.983766
-14.667
-1.53991
-1.52692
-2.07371
-0.60095
-0.733055
-12.3186
-6.17137
-7.92412
-0.353908
-3.05284
-4.14149
-3.05124
-4.10679
-2.97792
-4.08658
-3.0186
-4.05607
-3.40971
-3.87484
-3.28226
-3.7767
-3.38004
-3.87209
-3.24464
-3.7703
-4.56339
-5.81721
10.3395
64.8082
96.6069
109.417
139.231
64.7826
96.6738
103.434
138.946
85.3141
85.3671
88.638
86.8517
85.3066
85.3285
88.619
86.8046
21.2332
27.0029
0.137865
237.742
1.8606
237.73
21.8215
196.844
15.605
197.41
200.806
146.989
200.853
146.986
186.429
145.91
186.438
145.904
107.854
102.576
107.861
102.608
107.79
102.551
107.793
102.579
21.6974
27.5659
16.5679
105.662
118.622
52.2371
77.3574
96.4813
118.493
48.34
77.2874
104.88
102.312
99.9546
101.036
104.791
102.284
99.9024
100.989
21.6888
27.4296
5.76854
-81.1772
9.47811
11.789
9.49306
11.9989
9.51559
11.8355
9.53032
12.0774
19.3588
24.706
1.25671
11.5467
15.5142
19.3618
24.7007
-0.23384
7.39666
13.84
18.7214
23.9579
1.19727
-9.79467
-0.0389405
0.434428
0.785717
0.724203
7.66006
-0.313625
0.0326802
0.328932
-0.133516
3.72441
-2.36826
-2.94811
-3.56058
-0.263843
-5.06791
-5.27906
-5.07526
-5.15208
-8.26005
-6.00938
-5.87165
-5.48054
-3.30436
-2.55505
-3.36075
5.48343
7.49986
12.2915
61.5916
-0.329494
-8.4507
1.69661
47.0628
62.7026
96.9601
98.8889
129.601
62.9139
97.3325
105.147
97.361
105.188
97.338
105.147
97.3663
105.187
87.2846
117.679
81.1312
68.2093
81.9597
68.4947
80.9529
67.6632
80.9518
67.7816
19.6885
25.1083
8.37164
118.051
14.8859
116.248
2.89669
74.0946
-0.403505
72.8699
151.917
133.692
151.94
133.672
118.708
127.745
118.721
127.762
118.67
127.698
118.681
127.714
123.425
124.702
123.434
124.706
123.298
124.569
123.306
124.571
118.748
127.775
118.754
127.769
118.7
127.725
118.698
127.718
123.43
124.691
123.405
124.657
123.3
124.554
123.275
124.521
104.427
101.487
104.398
101.491
102.615
99.8814
102.582
99.8608
18.3356
21.0254
18.3024
20.989
18.0568
20.8444
18.0409
20.8088
25.1436
15.0141
50.616
10.9954
-8.49155
3.97925
39.9229
-1.65197
0.617897
75.2722
105.348
47.017
75.253
68.3985
95.8919
46.9957
75.084
102.993
101.358
99.3124
100.689
100.556
99.8115
98.5211
99.733
18.2133
20.9047
18.24
20.9551
18.0088
20.7655
18.0607
20.8244
25.0888
0.520501
1.39351
9.40318
2.40159
9.49481
6.57518
10.2243
8.25373
10.7347
13.4468
16.5757
13.4916
16.6593
13.6155
16.7691
13.6831
16.8553
21.7209
27.739
14.4236
66.715
93.4148
74.203
98.7261
77.1183
104.314
79.4998
109.806
69.7292
70.3454
69.84
70.4346
70.449
70.5682
70.565
70.6778
29.1187
35.8239
15.2586
74.1134
98.7029
61.305
88.0098
79.6852
109.339
72.1374
100.9
69.7935
70.4178
69.4849
70.2858
70.5591
70.6674
70.1309
70.5167
29.3434
35.543
4.54398
-21.6796
1.24983
0.199859
0.452202
3.77397
-21.2234
-7.70538
-0.134609
0.120659
-0.0210806
-2.53811
4.30072
1.63564
1.77058
-0.193802
0.882906
1.31582
0.549957
0.554914
-1.24418
4.79165
-34.8146
-31.9642
-44.5031
6.82465
-35.5315
-56.4353
-61.199
-53.5441
-62.5635
-55.3114
-62.6288
-53.7233
-63.1955
-57.9443
-63.3995
-9.5877
-12.0642
0.616039
-5.5123
0.804476
-2.61874
0.298454
-64.8678
0.407811
-62.398
-31.5264
-40.4046
-46.6025
-40.3874
-46.5896
-40.8275
-47.0547
-40.8163
-47.0534
-31.595
-40.3973
-46.6082
-40.3966
-46.61
-40.8293
-47.0725
-40.8254
-47.0636
-53.1125
-54.0117
-53.0695
-53.9754
-53.1665
-54.0791
-53.1243
-54.0409
-60.4143
-60.6341
-60.3971
-60.632
-60.6351
-60.9187
-60.6163
-60.9161
-53.0644
-53.9623
-53.0759
-53.9605
-53.1164
-54.0245
-53.1214
-54.0193
-60.3756
-60.5835
-60.3418
-60.5049
-60.5922
-60.8661
-60.5553
-60.7863
-56.2422
-62.6942
-56.3121
-62.7297
-66.2822
-63.546
-66.3508
-63.5815
-9.86974
-12.4251
-2.31897
-27.9791
-34.6759
-23.7975
-30.6639
-45.4358
-43.3556
-26.4233
-30.8562
-28.6128
-28.237
-28.4105
-28.0642
-29.2385
-28.9784
-28.9002
-28.7368
-10.1119
-12.3926
-1.65794
6.55889
8.89417
9.14123
12.8394
3.68073
9.08172
7.51187
11.4501
14.8637
21.43
27.4616
-12.2794
93.4632
41.7877
132.645
11.2718
87.1781
22.0429
88.8402
133.91
146.189
133.971
146.248
133.895
146.195
133.952
146.251
165.343
169.694
165.488
169.762
165.313
169.693
165.455
169.761
177.485
181.659
139.882
165.077
169.663
165.215
169.733
164.869
169.605
165.006
169.679
176.796
181.631
73.4078
73.7156
73.5316
73.8526
73.3933
73.7097
73.5283
73.8799
30.1125
35.6291
15.6149
157.326
5.46219
103.19
21.8591
88.8498
6.96039
73.8592
177.516
181.789
141.547
153.278
141.494
153.196
141.54
153.299
141.495
153.221
166.373
168.36
166.297
168.291
166.37
168.378
166.298
168.311
176.771
181.748
146.969
166.34
168.385
166.274
168.321
166.32
168.385
166.257
168.324
73.537
73.8621
73.4313
73.7535
73.5387
73.8946
73.3853
73.7971
30.042
35.8049
1.07273
8.60692
11.9747
-9.65252
-0.0876008
8.9567
12.4309
3.49519
6.63496
17.3341
0.134176
0.233124
3.59205
-17.7948
-12.7748
-0.112756
0.0110632
0.0547703
-0.684168
2.57598
1.5419
1.94174
0.330181
2.78607
0.880084
11.5655
1.8272
0.78066
0.563877
1.01642
1.16827
0.883615
1.15465
0.734421
0.848485
0.99393
1.26474
0.909913
1.06594
0.570386
0.589443
3.87516
-20.1109
-0.0238234
-103.765
5.67766
-48.5472
-5.82204
-124.165
-70.2501
-98.5503
-91.0003
-101.777
-91.0313
-101.806
-91.0872
-101.812
-91.1323
-101.846
-129.542
-70.3356
-98.6144
-91.2003
-101.879
-91.2457
-101.917
-91.232
-101.922
-91.2826
-101.965
-129.612
-83.1893
-88.8226
-84.2365
-89.8487
-83.3321
-88.8185
-84.2188
-89.8478
-9.5018
-12.1527
-2.90827
-139.261
-172.242
-139.291
-172.225
-139.245
-172.237
-139.275
-172.216
-4.46149
-139.292
-172.201
-139.299
-172.181
-139.273
-172.171
-139.276
-172.142
-5.40464
-139.268
-172.22
-139.246
-172.181
-139.221
-172.204
-139.186
-172.155
-9.217
-139.184
-172.121
-139.12
-172.068
-139.014
-172.066
-138.923
-172.004
-242.361
-252.747
-242.382
-252.778
-242.413
-252.794
-242.43
-252.819
-260.598
-260.036
-260.612
-260.051
-260.64
-260.074
-260.651
-260.087
-242.403
-252.79
-242.405
-252.776
-242.437
-252.823
-242.424
-252.801
-260.605
-260.043
-260.567
-260.003
-260.64
-260.077
-260.599
-260.038
-242.457
-252.821
-242.467
-252.839
-242.477
-252.826
-242.48
-252.839
-260.652
-260.082
-260.661
-260.094
-260.641
-260.066
-260.648
-260.078
-242.459
-252.834
-242.437
-252.808
-242.461
-252.829
-242.429
-252.797
-260.646
-260.084
-260.608
-260.05
-260.632
-260.068
-260.594
-260.036
-83.1393
-85.0476
-83.1869
-85.0666
-83.1256
-85.0622
-83.1874
-85.0938
-95.821
-83.1872
-85.06
-83.188
-85.0927
-83.2041
-85.0948
-83.2116
-85.127
-95.8825
-83.0801
-85.0652
-83.1489
-85.1088
-83.0216
-85.0879
-83.0918
-85.144
-95.8367
-83.1886
-85.1264
-83.2162
-85.1613
-83.1539
-85.1698
-83.1969
-85.2048
-95.8995
-9.01998
-10.2323
-9.14117
-10.368
-9.03952
-10.2835
-9.14347
-10.3839
-12.3482
-1.50371
-107.102
-0.562996
-21.1159
-8.81124
-80.0231
-1.81964
-19.6787
-101.31
-110.117
-101.236
-110.032
-101.326
-110.134
-101.249
-110.049
-126.748
-132.836
-126.661
-132.743
-126.757
-132.869
-126.669
-132.775
-72.7617
-101.766
-113.87
-137.528
-71.3517
-99.8354
-88.4837
-91.2671
-88.5218
-90.7736
-88.4691
-91.2931
-88.5294
-90.8034
-10.053
-12.6721
-1.08732
5.61686
10.9322
8.11913
13.5363
7.28916
13.9623
7.50336
14.0054
17.6829
22.4512
20.7221
23.8636
18.861
22.5005
20.8364
23.8734
21.291
27.3307
-1.59344
79.3962
16.5876
89.5231
2.2983
79.3757
10.0655
186.232
139.243
164.723
169.538
164.87
169.618
164.634
169.476
164.786
169.562
175.486
181.83
138.559
164.569
169.416
164.73
169.51
164.512
169.358
164.678
169.458
184.571
181.94
73.152
73.5672
73.4476
73.8527
72.5635
73.2881
73.0263
73.7385
29.9237
35.439
19.0796
90.2137
1.00951
71.5273
33.7176
189.718
0.897837
71.1859
175.474
181.922
146.71
166.316
168.385
166.251
168.323
166.325
168.382
166.254
168.317
184.546
181.999
140.53
149.683
140.47
149.588
140.449
149.574
140.378
149.472
166.335
168.367
166.257
168.299
166.321
168.334
166.237
168.263
73.5304
73.8819
73.3389
73.7963
73.132
73.7912
73.0637
73.7199
29.9232
35.6841
0.575482
9.74934
13.5883
10.4926
13.8827
9.8256
13.6911
10.7712
13.7094
20.1723
-0.0929059
-0.0245869
-0.132398
0.704339
-7.53411
-0.324428
-0.496408
0.212643
-0.425175
2.27749
0.582904
0.638088
0.0947675
1.30097
0.957801
1.13044
0.994523
1.12712
0.926888
1.0398
0.971168
1.07847
0.350062
0.399077
-4.31227
-62.0701
-87.1489
-94.5003
-113.784
0.738516
-57.1312
-54.8046
-76.7957
-82.688
-88.6975
-83.9237
-89.6841
-80.1834
-88.3936
-83.3458
-89.2168
-9.43496
-12.0146
-7.43017
-154.369
-10.0391
-125.847
0.513108
-82.9119
6.05148
-83.194
-199.135
-190.685
-197.124
-190.745
-137.402
-169.36
-174.434
-169.382
-174.457
-169.307
-174.383
-169.331
-174.406
-137.537
-169.389
-174.462
-169.374
-174.444
-169.338
-174.411
-169.324
-174.395
-87.8915
-94.9259
-88.0277
-95.0027
-87.8485
-93.8163
-87.9325
-93.893
-8.9377
-10.217
-9.04629
-10.3167
-8.8081
-10.1186
-8.93425
-10.2184
-12.2418
-8.47023
-45.0293
-3.13864
-9.71017
2.23517
-25.6943
-2.76127
11.8674
-92.8373
-129.895
-64.4316
-91.3776
-81.6156
-114.072
-52.2055
-73.6564
-88.2521
-91.1265
-88.3132
-90.7156
-87.9437
-90.7272
-87.8998
-90.4574
-9.93003
-12.6741
-0.376933
8.59435
15.2476
6.25996
15.2826
10.1797
14.5476
-10.5873
13.6621
26.224
33.2964
26.3723
33.7767
26.2197
33.2899
26.3585
33.7529
11.8829
15.453
11.6151
76.5197
106.92
118.162
125.583
39.0199
81.6409
101.17
117.574
70.3965
72.3533
72.7271
72.9939
69.8682
71.9389
72.3041
72.5528
26.5501
33.7324
11.3607
118.653
126.192
84.8871
118.947
101.463
117.49
61.4452
101.263
72.6549
73.0408
72.5264
72.971
72.1179
72.5844
71.9676
72.5149
26.7154
34.0035
-0.381707
12.629
20.4321
-0.0926037
-0.214388
0.345525
-6.78004
-8.21298
-0.855925
-1.06786
-0.35901
3.5221
-1.37911
-3.40829
-3.97753
0.265289
-1.40799
0.411593
-0.676192
-0.936453
-0.234793
0.946754
1.63306
0.85005
1.69084
0.993755
1.86228
1.63219
1.97156
1.81478
1.05402
0.476543
0.988778
-6.08777
-8.47697
-5.85699
-8.28934
-6.22492
-8.48649
-6.07232
-8.25902
-1.30128
-1.77715
-1.52053
-1.86014
-0.566994
-0.838937
-0.830087
-1.04833
-0.65205
-0.642816
0.335321
2.61964
1.247
2.38534
1.44619
2.73151
1.56608
2.27326
1.84726
-1.14988
-1.73138
-1.28458
-2.05391
-0.451279
-1.32085
-0.393844
-1.48846
-2.59664
-3.08616
0.00288995
-7.40558
-3.81891
-4.72278
-5.22214
-0.523982
12.0622
-0.588482
-4.50264
-5.14584
0.781853
6.2235
-1.16324
-2.16245
-2.59556
1.98488
-25.8013
-1.09062
-1.18878
-1.70383
1.35988
-6.0907
-1.43157
-1.22573
-1.64417
-0.346541
5.00373
-8.57936
-5.09086
-6.61362
-0.204914
0.144476
0.861308
-0.677334
-0.982203
0.103074
-0.550409
5.91096
1.46939
0.622886
0.597828
-7.58659
9.27783
2.99198
0.68711
-0.0150093
2.76536
4.21099
-1.72165
-2.97532
0.0171825
0.55059
-19.1552
-4.83835
-5.84863
-0.667351
2.12472
-20.171
-5.99927
-6.59539
-0.517422
2.72239
-1.24085
-2.50817
-3.51226
0.94662
-3.66125
-1.27056
-1.19864
-1.5299
1.24946
-5.68694
-1.52637
-1.19877
-1.50564
SCALARS m0 double 1
LOOKUP_TABLE table1
0
0
0
0
0
0
0
0
0
0
0
0
0
0
0
0
0
0
0
0
0
0
0
0
0
0
0
0
0
0
0
0
0
0
0
0
0
0
0
0
0
0
0
0
0
0
0
0
0
0
0
0
0
0
0
0
0
0
0
0
0
0
0
0
0
0
0
0
0
0
0
0
0
0
0
0
0
0
0
0
0
0
0
0
0
0
0
0
0
0
0
0
0
0
0
0
0
0
0
0
0
0
0
0
0
0
0
0
0
0
0
0
0
0
0
0
0
0
0
0
0
0
0
0
0
0
0
0
0
0
0
0
0
0
0
0
0
0
0
0
0
0
0
0
0
0
0
0
0
0
0
0
0
0
0
0
0
0
0
0
0
0
0
0
0
0
0
0
0
0
0
0
0
0
0
0
0
0
0
0
0
0
0
0
0
0
0
0
0
0
0
0
0
0
0
0
0
0
0
0
0
0
0
0
0
0
0
0
0
0
0
0
0
0
0
0
0
0
0
0
0
0
0
0
0
0
0
0
0
0
0
0
0
0
0
0
0
0
0
0
0
0
0
0
0
0
0
0
0
0
0
0
0
0
0
0
0
0
0
0
0
0
0
0
0
0
0
0
0
0
0
0
0
0
0
0
0
0
0
0
0
0
0
0
0
0
0
0
0
0
0
0
0
0
0
0
0
0
0
0
0
0
0
0
0
0
0
0
0
0
0
0
0
0
0
0
0
0
0
0
0
0
0
0
0
0
0
0
0
0
0
0
0
0
0
0
0
0
0
0
0
0
0
0
0
0
0
0
0
0
0
0
0
0
0
0
0
0
0
0
0
0
0
0
0
0
0
0
0
0
0
0
0
0
0
0
0
0
0
0
0
0
0
0
0
0
0
0
0
0
0
0
0
0
0
0
0
0
0
0
0
0
0
0
0
0
0
0
0
0
0
0
0
0
0
0
0
0
0
0
0
0
0
0
0
0
0
0
0
0
0
0
0
0
0
0
0
0
0
0
0
0
0
0
0
0
0
0
0
0
0
0
0
0
0
0
0
0
0
0
0
0
0
0
0
0
0
0
0
0
0
0
0
0
0
0
0
0
0
0
0
0
0
0
0
0
0
0
0
0
0
0
0
0
0
0
0
0
0
0
0
0
0
0
0
0
0
0
0
0
0
0
0
0
0
0
0
0
0
0
0
0
0
0
0
0
0
0
0
0
0
0
0
0
0
0
0
0
0
0
0
0
0
0
0
0
0
0
0
0
0
0
0
0
0
0
0
0
0
0
0
0
0
0
0
0
0
0
0
0
0
0
0
0
0
0
0
0
0
0
0
0
0
0
0
0
0
0
0
0
0
0
0
0
0
0
0
0
0
0
0
0
0
0
0
0
0
0
0
0
0
0
0
0
0
0
0
0
0
0
0
0
0
0
0
0
0
0
0
0
0
0
0
0
0
0
0
0
0
0
0
0
0
0
0
0
0
0
0
0
0
0
0
0
0
0
0
0
0
0
0
0
0
0
0
0
0
0
0
0
0
0
0
0
0
0
0
0
0
0
0
0
0
0
0
0
0
0
0
0
0
0
0
0
0
0
0
0
0
0
0
0
0
0
0
0
0
0
0
0
0
0
0
0
0
0
0
0
0
0
0
0
0
0
0
0
0
0
0
0
0
0
0
0
0
0
0
0
0
0
0
0
0
0
0
0
0
0
0
0
0
0
0
0
0
0
0
0
0
0
0
0
0
0
0
0
0
0
0
0
0
0
0
0
0
0
0
0
0
0
0
0
0
0
0
0
0
0
0
0
0
0
0
0
0
0
0
0
0
0
0
0
0
0
0
0
0
0
0
0
0
0
0
0
0
0
0
0
0
0
0
0
0
0
0
0
0
0
0
0
0
0
0
0
0
0
0
0
0
0
0
0
0
0
0
0
0
0
0
0
0
0
0
0
0
0
0
0
0
0
0
0
0
0
0
0
0
0
0
0
0
0
0
0
0
0
0
0
0
0
0
0
0
0
0
0
0
0
0
0
0
0
0
0
0
0
0
0
0
0
0
0
0
0
0
0
0
0
0
0
0
0
0
0
0
0
0
0
0
0
0
0
0
0
0
0
0
0
0
0
0
0
0
0
0
0
0
0
0
0
0
0
0
0
0
0
0
0
0
0
0
0
0
0
0
0
0
0
0
0
0
0
0
0
0
0
0
0
0
0
0
0
0
0
0
0
0
0
0
0
0
0
0
0
0
0
0
0
0
0
0
0
0
0
0
0
0
0
0
0
0
0
0
0
0
0
0
0
0
0
0
0
0
0
0
0
0
0
0
0
0
0
0
0
0
0
0
0
0
0
0
0
0
0
0
0
0
0
0
0
0
0
0
0
0
0
0
0
0
0
0
0
0
0
0
0
0
0
0
0
0
0
0
0
0
0
0
0
0
0
0
0
0
0
0
0
0
0
0
0
0
0
0
0
0
0
0
0
0
0
0
0
0
0
0
0
0
0
0
0
0
0
0
0
0
0
0
0
0
0
0
0
0
0
0
0
0
0
0
0
0
0
0
0
0
0
0
0
0
0
0
0
0
0
0
0
0
0
0
0
0
0
0
0
0
0
0
0
0
0
0
0
0
0
0
0
0
0
0
0
0
0
0
0
0
0
0
0
0
0
0
0
0
0
0
0
0
0
0
0
0
0
0
0
0
0
0
0
0
0
0
0
0
0
0
0
0
0
0
0
0
0
0
0
0
0
0
0
0
0
0
0
0
0
0
0
0
0
0
0
0
0
0
0
0
0
0
0
0
0
0
0
0
0
0
0
0
0
0
0
0
0
0
0
0
0
0
0
0
0
0
0
0
0
0
0
0
0
0
0
0
0
0
0
0
0
0
0
0
0
0
0
0
0
0
0
0
0
0
0
0
0
0
0
0
0
0
0
0
0
0
0
0
0
0
0
0
0
0
0
0
0
0
0
0
0
0
0
0
0
0
0
0
0
0
0
0
0
0
0
0
0
0
0
0
0
0
0
0
0
0
0
0
0
0
0
0
0
0
0
0
0
0
0
0
0
0
0
0
0
0
0
0
0
0
0
0
0
0
0
0
0
0
0
0
0
0
0
0
0
0
0
0
0
0
0
0
0
0
0
0
0
0
0
0
0
0
0
0
0
0
0
0
0
0
0
0
0
0
0
0
0
0
0
0
0
0
0
0
0
0
0
0
0
0
0
0
0
0
0
0
0
0
0
0
0
0
0
0
0
0
0
0
0
0
0
0
0
0
0
0
0
0
0
0
SCALARS m0s double 1
LOOKUP_TABLE table2
0
0
0
0
0
0
0
0
0
0
0
0
0
0
0
0
0
0
0
0
0
0
0
0
0
0
0
0
0
0
0
0
0
0
0
0
0
0
0
0
0
0
0
0
0
0
0
0
0
0
0
0
0
0
0
0
0
0
0
0
0
0
0
0
0
0
0
0
0
0
0
0
0
0
0
0
0
0
0
0
0
0
0
0
0
0
0
0
0
0
0
0
0
0
0
0
0
0
0
0
0
0
0
0
0
0
0
0
0
0
0
0
0
0
0
0
0
0
0
0
0
0
0
0
0
0
0
0
0
0
0
0
0
0
0
0
0
0
0
0
0
0
0
0
0
0
0
0
0
0
0
0
0
0
0
0
0
0
0
0
0
0
0
0
0
0
0
0
0
0
0
0
0
0
0
0
0
0
0
0
0
0
0
0
0
0
0
0
0
0
0
0
0
0
0
0
0
0
0
0
0
0
0
0
0
0
0
0
0
0
0
0
0
0
0
0
0
0
0
0
0
0
0
0
0
0
0
0
0
0
0
0
0
0
0
0
0
0
0
0
0
0
0
0
0
0
0
0
0
0
0
0
0
0
0
0
0
0
0
0
0
0
0
0
0
0
0
0
0
0
0
0
0
0
0
0
0
0
0
0
0
0
0
0
0
0
0
0
0
0
0
0
0
0
0
0
0
0
0
0
0
0
0
0
0
0
0
0
0
0
0
0
0
0
0
0
0
0
0
0
0
0
0
0
0
0
0
0
0
0
0
0
0
0
0
0
0
0
0
0
0
0
0
0
0
0
0
0
0
0
0
0
0
0
0
0
0
0
0
0
0
0
0
0
0
0
0
0
0
0
0
0
0
0
0
0
0
0
0
0
0
0
0
0
0
0
0
0
0
0
0
0
0
0
0
0
0
0
0
0
0
0
0
0
0
0
0
0
0
0
0
0
0
0
0
0
0
0
0
0
0
0
0
0
0
0
0
0
0
0
0
0
0
0
0
0
0
0
0
0
0
0
0
0
0
0
0
0
0
0
0
0
0
0
0
0
0
0
0
0
0
0
0
0
0
0
0
0
0
0
0
0
0
0
0
0
0
0
0
0
0
0
0
0
0
0
0
0
0
0
0
0
0
0
0
0
0
0
0
0
0
0
0
0
0
0
0
0
0
0
0
0
0
0
0
0
0
0
0
0
0
0
0
0
0
0
0
0
0
0
0
0
0
0
0
0
0
0
0
0
0
0
0
0
0
0
0
0
0
0
0
0
0
0
0
0
0
0
0
0
0
0
0
0
0
0
0
0
0
0
0
0
0
0
0
0
0
0
0
0
0
0
0
0
0
0
0
0
0
0
0
0
0
0
0
0
0
0
0
0
0
0
0
0
0
0
0
0
0
0
0
0
0
0
0
0
0
0
0
0
0
0
0
0
0
0
0
0
0
0
0
0
0
0
0
0
0
0
0
0
0
0
0
0
0
0
0
0
0
0
0
0
0
0
0
0
0
0
0
0
0
0
0
0
0
0
0
0
0
0
0
0
0
0
0
0
0
0
0
0
0
0
0
0
0
0
0
0
0
0
0
0
0
0
0
0
0
0
0
0
0
0
0
0
0
0
0
0
0
0
0
0
0
0
0
0
0
0
0
0
0
0
0
0
0
0
0
0
0
0
0
0
0
0
0
0
0
0
0
0
0
0
0
0
0
0
0
0
0
0
0
0
0
0
0
0
0
0
0
0
0
0
0
0
0
0
0
0
0
0
0
0
0
0
0
0
0
0
0
0
0
0
0
0
0
0
0
0
0
0
0
0
0
0
0
0
0
0
0
0
0
0
0
0
0
0
0
0
0
0
0
0
0
0
0
0
0
0
0
0
0
0
0
0
0
0
0
0
0
0
0
0
0
0
0
0
0
0
0
0
0
0
0
0
0
0
0
0
0
0
0
0
0
0
0
0
0
0
0
0
0
0
0
0
0
0
0
0
0
0
0
0
0
0
0
0
0
0
0
0
0
0
0
0
0
0
0
0
0
0
0
0
0
0
0
0
0
0
0
0
0
0
0
0
0
0
0
0
0
0
0
0
0
0
0
0
0
0
0
0
0
0
0
0
0
0
0
0
0
0
0
0
0
0
0
0
0
0
0
0
0
0
0
0
0
0
0
0
0
0
0
0
0
0
0
0
0
0
0
0
0
0
0
0
0
0
0
0
0
0
0
0
0
0
0
0
0
0
0
0
0
0
0
0
0
0
0
0
0
0
0
0
0
0
0
0
0
0
0
0
0
0
0
0
0
0
0
0
0
0
0
0
0
0
0
0
0
0
0
0
0
0
0
0
0
0
0
0
0
0
0
0
0
0
0
0
0
0
0
0
0
0
0
0
0
0
0
0
0
0
0
0
0
0
0
0
0
0
0
0
0
0
0
0
0
0
0
0
0
0
0
0
0
0
0
0
0
0
0
0
0
0
0
0
0
0
0
0
0
0
0
0
0
0
0
0
0
0
0
0
0
0
0
0
0
0
0
0
0
0
0
0
0
0
0
0
0
0
0
0
0
0
0
0
0
0
0
0
0
0
0
0
0
0
0
0
0
0
0
0
0
0
0
0
0
0
0
0
0
0
0
0
0
0
0
0
0
0
0
0
0
0
0
0
0
0
0
0
0
0
0
0
0
0
0
0
0
0
0
0
0
0
0
0
0
0
0
0
0
0
0
0
0
0
0
0
0
0
0
0
0
0
0
0
0
0
0
0
0
0
0
0
0
0
0
0
0
0
0
0
0
0
0
0
0
0
0
0
0
0
0
0
0
0
0
0
0
0
0
0
0
0
0
0
0
0
0
0
0
0
0
0
0
0
0
0
0
0
0
0
0
0
0
0
0
0
0
0
0
0
0
0
0
0
0
0
0
0
0
0
0
0
0
0
0
0
0
0
0
0
0
0
0
0
0
0
0
0
0
0
0
0
0
0
0
0
0
0
0
0
0
0
0
0
0
0
0
0
0
0
0
0
0
0
0
0
0
0
0
0
0
0
0
0
0
0
0
0
0
0
0
0
0
0
0
0
0
0
0
0
0
0
0
0
0
0
0
0
0
0
0
0
0
0
0
0
0
0
0
0
0
0
0
0
0
0
0
0
0
0
0
0
0
0
0
0
0
0
0
0
0
0
0
0
0
0
0
0
0
0
0
0
0
0
0
0
0
0
0
0
0
0
0
0
0
0
0
0
0
0
0
0
0
0
0
0
0
0
0
0
0
0
0
0
0
0
0
0
0
0
0
0
0
0
0

POINT_DATA	1445
SCALARS model double 1
LOOKUP_TABLE table0
-0.642331
12.8678
-6.3106
-9.16312
-12.0712
-0.317784
3.4975
-5.28076
-8.03391
-10.7603
-0.204255
1.80183
-5.58063
-7.09601
-9.11572
-0.581407
-1.17795
-8.09291
-6.62166
-8.20328
0.425212
0.285975
-5.62614
-6.10518
-7.16569
0.0870572
-0.865647
-2.4435
-3.13674
-3.91768
0.115048
-2.78986
-0.881496
-1.21665
-1.71745
0.529314
-15.5048
0.849022
0.2798
-0.388028
0.0921123
1.207
2.28248
-0.135278
-1.21868
0.382242
-8.6234
-3.22107
-1.49386
-2.05765
-0.442426
-1.12437
-7.94364
-10.1014
-12.9486
0.42149
-4.35927
-5.44916
-8.06307
-10.4456
-0.111443
-15.5883
-5.13484
-5.79504
-7.35157
-1.56926
8.2783
4.24875
-2.96922
-3.77375
1.43216
-29.1915
-1.81351
-2.69011
-3.38923
1.60464
-15.0488
-1.93741
-2.53004
-3.32157
0.596077
-3.15567
-0.50425
-1.10898
-1.53034
-1.24728
11.2148
0.277419
-0.546146
-1.23274
-0.636466
1.72723
0.38492
-0.926388
-1.88139
0.342543
-0.0694993
-1.26608
-1.8548
-2.50502
-1.47109
21.597
-11.1757
-10.5644
-13.6592
0.138455
-13.3978
-5.66764
-8.03118
-10.3462
0.736818
0.289972
39.7653
26.2553
46.7134
24.7616
44.9978
54.8397
66.4602
60.9172
72.2683
62.4728
72.5847
61.6642
72.5166
67.1462
73.0035
21.0822
26.9151
2.48705
41.6281
58.8862
41.6712
58.8395
87.533
93.0973
87.7774
93.09
74.9866
73.0676
74.9902
73.0862
77.4704
73.6755
77.4742
73.6917
21.4759
27.4976
3.51486
5.34152
24.9282
-9.99957
20.8327
44.7252
36.8788
11.6514
24.7886
53.6075
63.7476
52.2783
63.1699
54.7057
64.1538
52.7385
63.4196
21.2999
27.1426
2.46854
-6.62977
0.257076
0.394347
0.20953
-1.03336
-11.8546
0.32046
0.214247
-0.0600216
-0.408827
-12.7921
0.102581
-0.050038
-0.391134
0.558474
-8.01176
-0.828842
-1.17075
-1.56012
0.983766
-14.667
-1.53991
-1.52692
-2.07371
-0.60095
-0.733055
-12.3186
-6.17137
-7.92412
-0.353908
-3.05284
-4.14149
-3.05124
-4.10679