# vtk DataFile Version 5.1
vtk output
ASCII
DATASET STRUCTURED_POINTS
FIELD FieldData 1
density_units 1 1 string
kg/m3

DIMENSIONS 40 40 20
SPACING 50 50 50
ORIGIN 25 25 25
POINT_DATA 32000
FIELD FieldData 1
density 1 32000 double
-0.045156917395 -0.045156917395 -0.045156917395 -0.045156917395 -0.43917196042 -0.43917196042 -0.43917196042 -0.43917196042 -0.49355855324 
-0.49355855324 -0.49355855324 -0.49355855324 -0.63256268828 -0.63256268828 -0.63256268828 -0.63256268828 -0.5867834932 -0.5867834932 
-0.5867834932 -0.5867834932 -0.016905976881 -0.016905976881 -0.016905976881 -0.016905976881 0.01287527017 0.01287527017 0.01287527017 
0.01287527017 -0.39054312007 -0.39054312007 -0.39054312007 -0.39054312007 0.071466391273 0.071466391273 0.071466391273 0.071466391273 
0.020264774375 0.020264774375 0.020264774375 0.020264774375 -0.045156917395 -0.045156917395 -0.045156917395 -0.045156917395 -0.43917196042 
-0.43917196042 -0.43917196042 -0.43917196042 -0.49355855324 -0.49355855324 -0.49355855324 -0.49355855324 -0.63256268828 -0.63256268828 
-0.63256268828 -0.63256268828 -0.5867834932 -0.5867834932 -0.5867834932 -0.5867834932 -0.016905976881 -0.016905976881 -0.016905976881 
-0.016905976881 0.01287527017 0.01287527017 0.01287527017 0.01287527017 -0.39054312007 -0.39054312007 -0.39054312007 -0.39054312007 
0.071466391273 0.071466391273 0.071466391273 0.071466391273 0.020264774375 0.020264774375 0.020264774375 0.020264774375 -0.045156917395 
-0.045156917395 -0.045156917395 -0.045156917395 -0.43917196042 -0.43917196042 -0.43917196042 -0.43917196042 -0.49355855324 -0.49355855324 
-0.49355855324 -0.49355855324 -0.63256268828 -0.63256268828 -0.63256268828 -0.63256268828 -0.5867834932 -0.5867834932 -0.5867834932 
-0.5867834932 -0.016905976881 -0.016905976881 -0.016905976881 -0.016905976881 0.01287527017 0.01287527017 0.01287527017 0.01287527017 
-0.39054312007 -0.39054312007 -0.39054312007 -0.39054312007 0.071466391273 0.071466391273 0.071466391273 0.071466391273 0.020264774375 
0.020264774375 0.020264774375 0.020264774375 -0.045156917395 -0.045156917395 -0.045156917395 -0.045156917395 -0.43917196042 -0.43917196042 
-0.43917196042 -0.43917196042 -0.49355855324 -0.49355855324 -0.49355855324 -0.49355855324 -0.63256268828 -0.63256268828 -0.63256268828 
-0.63256268828 -0.5867834932 -0.5867834932 -0.5867834932 -0.5867834932 -0.016905976881 -0.016905976881 -0.016905976881 -0.016905976881 
0.01287527017 0.01287527017 0.01287527017 0.01287527017 -0.39054312007 -0.39054312007 -0.39054312007 -0.39054312007 0.071466391273 
0.071466391273 0.071466391273 0.071466391273 0.020264774375 0.020264774375 0.020264774375 0.020264774375 0.17232912502 0.17232912502 
0.17232912502 0.17232912502 -0.15788173152 -0.15788173152 -0.15788173152 -0.15788173152 -1.0910190156 -1.0910190156 -1.0910190156 
-1.0910190156 -2.1969937572 -2.1969937572 -2.1969937572 -2.1969937572 -1.6031070647 -1.6031070647 -1.6031070647 -1.6031070647 
-0.0012016514058 -0.0012016514058 -0.0012016514058 -0.0012016514058 -0.07246723343 -0.07246723343 -0.07246723343 -0.07246723343 -0.51498494469 
-0.51498494469 -0.51498494469 -0.51498494469 0.1033634011 0.1033634011 0.1033634011 0.1033634011 0.3146146227 0.3146146227 
0.3146146227 0.3146146227 0.17232912502 0.17232912502 0.17232912502 0.17232912502 -0.15788173152 -0.15788173152 -0.15788173152 
-0.15788173152 -1.0910190156 -1.0910190156 -1.0910190156 -1.0910190156 -2.1969937572 -2.1969937572 -2.1969937572 -2.1969937572 
-1.6031070647 -1.6031070647 -1.6031070647 -1.6031070647 -0.0012016514058 -0.0012016514058 -0.0012016514058 -0.0012016514058 -0.07246723343 
-0.07246723343 -0.07246723343 -0.07246723343 -0.51498494469 -0.51498494469 -0.51498494469 -0.51498494469 0.1033634011 0.1033634011 
0.1033634011 0.1033634011 0.3146146227 0.3146146227 0.3146146227 0.3146146227 0.17232912502 0.17232912502 0.17232912502 
0.17232912502 -0.15788173152 -0.15788173152 -0.15788173152 -0.15788173152 -1.0910190156 -1.0910190156 -1.0910190156 -1.0910190156 
-2.1969937572 -2.1969937572 -2.1969937572 -2.1969937572 -1.6031070647 -1.6031070647 -1.6031070647 -1.6031070647 -0.0012016514058 
-0.0012016514058 -0.0012016514058 -0.0012016514058 -0.07246723343 -0.07246723343 -0.07246723343 -0.07246723343 -0.51498494469 -0.51498494469 
-0.51498494469 -0.51498494469 0.1033634011 0.1033634011 0.1033634011 0.1033634011 0.3146146227 0.3146146227 0.3146146227 
0.3146146227 0.17232912502 0.17232912502 0.17232912502 0.17232912502 -0.15788173152 -0.15788173152 -0.15788173152 -0.15788173152 
-1.0910190156 -1.0910190156 -1.0910190156 -1.0910190156 -2.1969937572 -2.1969937572 -2.1969937572 -2.1969937572 -1.6031070647 
-1.6031070647 -1.6031070647 -1.6031070647 -0.0012016514058 -0.0012016514058 -0.0012016514058 -0.0012016514058 -0.07246723343 -0.07246723343 
-0.07246723343 -0.07246723343 -0.51498494469 -0.51498494469 -0.51498494469 -0.51498494469 0.1033634011 0.1033634011 0.1033634011 
0.1033634011 0.3146146227 0.3146146227 0.3146146227 0.3146146227 -0.042327657227 -0.042327657227 -0.042327657227 -0.042327657227 
0.9489927959 0.9489927959 0.9489927959 0.9489927959 -1.2690040325 -1.2690040325 -1.2690040325 -1.2690040325 -5.2555832702 
-5.2555832702 -2.105105042 -2.105105042 -2.1098221038 -2.1098221038 -3.1159747244 -3.1159747244 -1.1891052597 -1.1891052597 
-1.1891052597 -1.1891052597 1.151758602 1.151758602 -6.5328389067 -6.5328389067 -3.2154069484 -3.2154069484 0.49417680818 
0.49417680818 0.99116022454 0.99116022454 0.99116022454 0.99116022454 0.73147202871 0.73147202871 0.73147202871 0.73147202871 
-0.042327657227 -0.042327657227 -0.042327657227 -0.042327657227 0.9489927959 0.9489927959 0.9489927959 0.9489927959 -1.2690040325 
-1.2690040325 -1.2690040325 -1.2690040325 -5.2555832702 -5.2555832702 -2.105105042 -2.105105042 -2.1098221038 -2.1098221038 
-3.1159747244 -3.1159747244 -1.1891052597 -1.1891052597 -1.1891052597 -1.1891052597 1.151758602 1.151758602 -6.5328389067 
-6.5328389067 -3.2154069484 -3.2154069484 0.49417680818 0.49417680818 0.99116022454 0.99116022454 0.99116022454 0.99116022454 
0.73147202871 0.73147202871 0.73147202871 0.73147202871 -0.042327657227 -0.042327657227 -0.042327657227 -0.042327657227 0.9489927959 
0.9489927959 0.9489927959 0.9489927959 -1.2690040325 -1.2690040325 -1.2690040325 -1.2690040325 5.7485934462 5.7485934462 
13.617224925 13.617224925 8.6655346738 8.6655346738 -6.6949795165 -6.6949795165 -1.1891052597 -1.1891052597 -1.1891052597 
-1.1891052597 -5.7853167215 -5.7853167215 -17.171719592 -17.171719592 -14.775433666 -14.775433666 -4.7783434891 -4.7783434891 
0.99116022454 0.99116022454 0.99116022454 0.99116022454 0.73147202871 0.73147202871 0.73147202871 0.73147202871 -0.042327657227 
-0.042327657227 -0.042327657227 -0.042327657227 0.9489927959 0.9489927959 0.9489927959 0.9489927959 -1.2690040325 -1.2690040325 
-1.2690040325 -1.2690040325 5.7485934462 5.7485934462 13.617224925 13.617224925 8.6655346738 8.6655346738 -6.6949795165 
-6.6949795165 -1.1891052597 -1.1891052597 -1.1891052597 -1.1891052597 -5.7853167215 -5.7853167215 -17.171719592 -17.171719592 
-14.775433666 -14.775433666 -4.7783434891 -4.7783434891 0.99116022454 0.99116022454 0.99116022454 0.99116022454 0.73147202871 
0.73147202871 0.73147202871 0.73147202871 0.10449330576 0.10449330576 0.10449330576 0.10449330576 0.062446370766 0.062446370766 
0.062446370766 0.062446370766 -2.9594187001 -2.9594187001 6.9543402158 6.9543402158 8.6944928787 9.9200685551 11.254989118 
17.09793835 18.874693681 18.874693681 -0.078857105398 -0.078857105398 -1.7959030464 -1.7959030464 0.46421878817 0.46421878817 
-1.7216454488 1.6932426606 -7.9332316029 -19.086395226 -7.8612377549 -11.602323073 -8.2786920648 -8.2786920648 4.8287341051 
4.8287341051 0.74761551446 0.74761551446 0.073987171268 0.073987171268 0.073987171268 0.073987171268 0.10449330576 0.10449330576 
0.10449330576 0.10449330576 0.062446370766 0.062446370766 0.062446370766 0.062446370766 -2.9594187001 -2.9594187001 6.9543402158 
6.9543402158 11.974678353 15.906238992 15.41315792 18.105924077 18.874693681 18.874693681 -0.078857105398 -0.078857105398 
-1.7959030464 -1.7959030464 0.46421878817 0.46421878817 -7.3494338196 -7.1716655735 -14.391713701 -25.052879519 -24.576311147 
-13.654794226 -8.2786920648 -8.2786920648 4.8287341051 4.8287341051 0.74761551446 0.74761551446 0.073987171268 0.073987171268 
0.073987171268 0.073987171268 0.10449330576 0.10449330576 0.10449330576 0.10449330576 0.062446370766 0.062446370766 0.062446370766 
0.062446370766 6.1754382299 6.1754382299 11.164163639 11.164163639 21.023531478 21.023531478 29.870946605 29.870946605 
12.723234884 12.723234884 -10.935727633 -10.935727633 -7.4761708174 -7.4761708174 -8.8794526106 -8.8794526106 -19.105752636 
-19.105752636 -13.495098572 -15.132729749 -19.838142539 -9.7583664978 -6.9158287511 -6.9158287511 0.90802842667 0.90802842667 
0.33455508835 0.33455508835 0.073987171268 0.073987171268 0.073987171268 0.073987171268 0.10449330576 0.10449330576 0.10449330576 
0.10449330576 0.062446370766 0.062446370766 0.062446370766 0.062446370766 6.1754382299 6.1754382299 11.164163639 11.164163639 
21.023531478 21.023531478 29.870946605 29.870946605 12.723234884 12.723234884 -10.935727633 -10.935727633 -7.4761708174 
-7.4761708174 -8.8794526106 -8.8794526106 -19.105752636 -19.105752636 -15.537616387 -11.907736353 -15.883500581 -12.250849852 
-6.9158287511 -6.9158287511 0.90802842667 0.90802842667 0.33455508835 0.33455508835 0.073987171268 0.073987171268 0.073987171268 
0.073987171268 0.40830875023 0.40830875023 0.40830875023 0.40830875023 0.5293710994 0.5293710994 0.5293710994 0.5293710994 
5.8392640312 5.8392640312 5.8392640312 5.8392640312 21.157360792 21.157360792 17.726990768 17.726990768 3.5521245955 
3.5521245955 -14.28613345 -14.28613345 -10.531485588 -10.531485588 -10.531485588 -10.531485588 -20.395315141 -20.395315141 
-32.256295789 -32.256295789 -19.249217755 -19.249217755 -4.9670314135 -4.9670314135 0.12620327179 0.12620327179 0.12620327179 
0.12620327179 0.036619720272 0.036619720272 0.036619720272 0.036619720272 0.40830875023 0.40830875023 0.40830875023 0.40830875023 
0.5293710994 0.5293710994 0.5293710994 0.5293710994 5.8392640312 5.8392640312 5.8392640312 5.8392640312 21.157360792 
21.157360792 17.726990768 17.726990768 3.5521245955 3.5521245955 -14.28613345 -14.28613345 -10.531485588 -10.531485588 
-10.531485588 -10.531485588 -20.395315141 -20.395315141 -32.256295789 -32.256295789 -19.249217755 -19.249217755 -4.9670314135 
-4.9670314135 0.12620327179 0.12620327179 0.12620327179 0.12620327179 0.036619720272 0.036619720272 0.036619720272 0.036619720272 
0.40830875023 0.40830875023 0.40830875023 0.40830875023 0.5293710994 0.5293710994 0.5293710994 0.5293710994 5.8392640312 
5.8392640312 5.8392640312 5.8392640312 1.5187505319 1.5187505319 2.5046885226 2.5046885226 -4.9602527763 -4.9602527763 
-12.939651095 -12.939651095 -10.531485588 -10.531485588 -10.531485588 -10.531485588 -10.457192602 -10.457192602 -10.587716389 
-10.587716389 -7.9096458755 -7.9096458755 -1.8497516866 -1.8497516866 0.12620327179 0.12620327179 0.12620327179 0.12620327179 
0.036619720272 0.036619720272 0.036619720272 0.036619720272 0.40830875023 0.40830875023 0.40830875023 0.40830875023 0.5293710994 
0.5293710994 0.5293710994 0.5293710994 5.8392640312 5.8392640312 5.8392640312 5.8392640312 1.5187505319 1.5187505319 
2.5046885226 2.5046885226 -4.9602527763 -4.9602527763 -12.939651095 -12.939651095 -10.531485588 -10.531485588 -10.531485588 
-10.531485588 -10.457192602 -10.457192602 -10.587716389 -10.587716389 -7.9096458755 -7.9096458755 -1.8497516866 -1.8497516866 
0.12620327179 0.12620327179 0.12620327179 0.12620327179 0.036619720272 0.036619720272 0.036619720272 0.036619720272 -0.82682812914 
-0.82682812914 -0.82682812914 -0.82682812914 -0.91221133564 -0.91221133564 -0.91221133564 -0.91221133564 1.1163521581 1.1163521581 
1.1163521581 1.1163521581 -0.94758241005 -0.94758241005 -1.5393295025 -1.5393295025 -7.6871438792 -7.6871438792 -7.6871438792 
-7.6871438792 -8.2529917988 -8.2529917988 -6.0424825089 -6.0424825089 -2.2455462144 -2.2455462144 -2.2455462144 -2.2455462144 
-0.86400817691 -0.86400817691 -0.86400817691 -0.86400817691 -0.30963866516 -0.30963866516 -0.30963866516 -0.30963866516 -0.019436401922 
-0.019436401922 -0.019436401922 -0.019436401922 -0.82682812914 -0.82682812914 -0.82682812914 -0.82682812914 -0.91221133564 -0.91221133564 
-0.91221133564 -0.91221133564 1.1163521581 1.1163521581 1.1163521581 1.1163521581 -0.94758241005 -0.94758241005 -1.5393295025 
-1.5393295025 -7.6871438792 -7.6871438792 -7.6871438792 -7.6871438792 -8.2529917988 -8.2529917988 -6.0424825089 -6.0424825089 
-2.2455462144 -2.2455462144 -2.2455462144 -2.2455462144 -0.86400817691 -0.86400817691 -0.86400817691 -0.86400817691 -0.30963866516 
-0.30963866516 -0.30963866516 -0.30963866516 -0.019436401922 -0.019436401922 -0.019436401922 -0.019436401922 -0.82682812914 -0.82682812914 
-0.82682812914 -0.82682812914 -0.91221133564 -0.91221133564 -0.91221133564 -0.91221133564 1.1163521581 1.1163521581 1.1163521581 
1.1163521581 -0.31536619811 -0.31536619811 -1.0420561521 -1.0420561521 -7.6871438792 -7.6871438792 -7.6871438792 -7.6871438792 
-5.7278987853 -5.7278987853 1.8708682399 1.8708682399 -2.2455462144 -2.2455462144 -2.2455462144 -2.2455462144 -0.86400817691 
-0.86400817691 -0.86400817691 -0.86400817691 -0.30963866516 -0.30963866516 -0.30963866516 -0.30963866516 -0.019436401922 -0.019436401922 
-0.019436401922 -0.019436401922 -0.82682812914 -0.82682812914 -0.82682812914 -0.82682812914 -0.91221133564 -0.91221133564 -0.91221133564 
-0.91221133564 1.1163521581 1.1163521581 1.1163521581 1.1163521581 -0.31536619811 -0.31536619811 -1.0420561521 -1.0420561521 
-7.6871438792 -7.6871438792 -7.6871438792 -7.6871438792 -5.7278987853 -5.7278987853 1.8708682399 1.8708682399 -2.2455462144 
-2.2455462144 -2.2455462144 -2.2455462144 -0.86400817691 -0.86400817691 -0.86400817691 -0.86400817691 -0.30963866516 -0.30963866516 
-0.30963866516 -0.30963866516 -0.019436401922 -0.019436401922 -0.019436401922 -0.019436401922 -0.53182925856 -0.53182925856 -0.53182925856 
-0.53182925856 -1.469137161 -1.469137161 -1.469137161 -1.469137161 -0.82180799132 -0.82180799132 -0.82180799132 -0.82180799132 
-1.5195056735 -1.5195056735 -1.5195056735 -1.5195056735 -9.0755497472 -9.0755497472 2.7308088402 2.7308088402 -4.0013680165 
-4.0013680165 4.7816060063 4.7816060063 6.5832053585 6.5832053585 5.3390396893 5.3390396893 0.21983677211 0.21983677211 
3.2531679238 3.2531679238 -0.024165557707 -0.024165557707 -0.024165557707 -0.024165557707 0.19591681255 0.19591681255 0.19591681255 
0.19591681255 -0.53182925856 -0.53182925856 -0.53182925856 -0.53182925856 -1.469137161 -1.469137161 -1.469137161 -1.469137161 
-0.82180799132 -0.82180799132 -0.82180799132 -0.82180799132 -1.5195056735 -1.5195056735 -1.5195056735 -1.5195056735 -9.0755497472 
-9.0755497472 2.7308088402 2.7308088402 -4.0013680165 -4.0013680165 4.7816060063 4.7816060063 6.5832053585 6.5832053585 
5.3390396893 5.3390396893 0.21983677211 0.21983677211 3.2531679238 3.2531679238 -0.024165557707 -0.024165557707 -0.024165557707 
-0.024165557707 0.19591681255 0.19591681255 0.19591681255 0.19591681255 -0.53182925856 -0.53182925856 -0.53182925856 -0.53182925856 
-1.469137161 -1.469137161 -1.469137161 -1.469137161 -0.82180799132 -0.82180799132 -0.82180799132 -0.82180799132 -1.5195056735 
-1.5195056735 -1.5195056735 -1.5195056735 3.4964610984 3.4964610984 6.6377866055 6.6377866055 13.664252498 13.626507551 
22.678954325 22.678954325 19.685614416 19.685614416 17.86239549 17.86239549 10.369807675 10.369807675 1.5466091742 
1.5466091742 -0.024165557707 -0.024165557707 -0.024165557707 -0.024165557707 0.19591681255 0.19591681255 0.19591681255 0.19591681255 
-0.53182925856 -0.53182925856 -0.53182925856 -0.53182925856 -1.469137161 -1.469137161 -1.469137161 -1.469137161 -0.82180799132 
-0.82180799132 -0.82180799132 -0.82180799132 -1.5195056735 -1.5195056735 -1.5195056735 -1.5195056735 3.4964610984 3.4964610984 
6.6377866055 6.6377866055 18.117854801 19.9495573 22.678954325 22.678954325 19.685614416 19.685614416 17.86239549 
17.86239549 10.369807675 10.369807675 1.5466091742 1.5466091742 -0.024165557707 -0.024165557707 -0.024165557707 -0.024165557707 
0.19591681255 0.19591681255 0.19591681255 0.19591681255 0.49310570228 0.49310570228 0.49310570228 0.49310570228 -0.79458275805 
-0.79458275805 -0.79458275805 -0.79458275805 -1.0738408559 -1.0738408559 -1.0738408559 -1.0738408559 -2.1514497947 -2.1514497947 
-2.1514497947 -2.1514497947 2.4021624945 2.4021624945 18.348248938 18.348248938 15.324374408 15.324374408 25.954899499 
25.954899499 25.09539384 25.09539384 20.595051081 9.6055626779 10.788893233 10.788893233 10.294997359 10.294997359 
1.0678583822 1.0678583822 1.0678583822 1.0678583822 -0.23712341325 -0.23712341325 -0.23712341325 -0.23712341325 0.49310570228 
0.49310570228 0.49310570228 0.49310570228 -0.79458275805 -0.79458275805 -0.79458275805 -0.79458275805 -1.0738408559 -1.0738408559 
-1.0738408559 -1.0738408559 -2.1514497947 -2.1514497947 -2.1514497947 -2.1514497947 2.4021624945 2.4021624945 18.348248938 
18.348248938 15.324374408 15.324374408 25.954899499 25.954899499 25.09539384 25.09539384 16.231077314 4.6507596476 
10.788893233 10.788893233 10.294997359 10.294997359 1.0678583822 1.0678583822 1.0678583822 1.0678583822 -0.23712341325 
-0.23712341325 -0.23712341325 -0.23712341325 0.49310570228 0.49310570228 0.49310570228 0.49310570228 -0.79458275805 -0.79458275805 
-0.79458275805 -0.79458275805 -1.0738408559 -1.0738408559 -1.0738408559 -1.0738408559 -2.1514497947 -2.1514497947 -2.1514497947 
-2.1514497947 -3.9328739939 -3.9328739939 -2.864318822 -2.864318822 2.9796141274 2.9796141274 13.082969133 13.082969133 
2.3806793796 2.3806793796 2.799001411 2.799001411 9.2802036559 9.2802036559 -4.667632438 -4.667632438 1.0678583822 
1.0678583822 1.0678583822 1.0678583822 -0.23712341325 -0.23712341325 -0.23712341325 -0.23712341325 0.49310570228 0.49310570228 
0.49310570228 0.49310570228 -0.79458275805 -0.79458275805 -0.79458275805 -0.79458275805 -1.0738408559 -1.0738408559 -1.0738408559 
-1.0738408559 -2.1514497947 -2.1514497947 -2.1514497947 -2.1514497947 -3.9328739939 -3.9328739939 -2.864318822 -2.864318822 
2.9796141274 2.9796141274 13.082969133 13.082969133 2.3806793796 2.3806793796 2.799001411 2.799001411 9.2802036559 
9.2802036559 -4.667632438 -4.667632438 1.0678583822 1.0678583822 1.0678583822 1.0678583822 -0.23712341325 -0.23712341325 
-0.23712341325 -0.23712341325 -0.16021427257 -0.16021427257 -0.16021427257 -0.16021427257 -0.020755706917 -0.020755706917 -0.020755706917 
-0.020755706917 -0.93495789987 -0.93495789987 -0.93495789987 -0.93495789987 -2.1383886502 -2.1383886502 -2.1383886502 -2.1383886502 
-3.439487218 -3.439487218 -3.439487218 -3.439487218 -0.76604889663 -0.76604889663 -0.76604889663 -0.76604889663 4.9188657168 
4.9188657168 0.86436278482 0.86436278482 2.8266864509 2.8266864509 2.8266864509 2.8266864509 1.3264736811 1.3264736811 
1.3264736811 1.3264736811 -0.56485954883 -0.56485954883 -0.56485954883 -0.56485954883 -0.16021427257 -0.16021427257 -0.16021427257 
-0.16021427257 -0.020755706917 -0.020755706917 -0.020755706917 -0.020755706917 -0.93495789987 -0.93495789987 -0.93495789987 -0.93495789987 
-2.1383886502 -2.1383886502 -2.1383886502 -2.1383886502 -3.439487218 -3.439487218 -3.439487218 -3.439487218 -0.76604889663 
-0.76604889663 -0.76604889663 -0.76604889663 4.9188657168 4.9188657168 0.86436278482 0.86436278482 2.8266864509 2.8266864509 
2.8266864509 2.8266864509 1.3264736811 1.3264736811 1.3264736811 1.3264736811 -0.56485954883 -0.56485954883 -0.56485954883 
-0.56485954883 -0.16021427257 -0.16021427257 -0.16021427257 -0.16021427257 -0.020755706917 -0.020755706917 -0.020755706917 -0.020755706917 
-0.93495789987 -0.93495789987 -0.93495789987 -0.93495789987 -2.1383886502 -2.1383886502 -2.1383886502 -2.1383886502 -3.439487218 
-3.439487218 -3.439487218 -3.439487218 -0.76604889663 -0.76604889663 -0.76604889663 -0.76604889663 -5.2281786176 -5.2281786176 
1.4061738225 1.4061738225 2.8266864509 2.8266864509 2.8266864509 2.8266864509 1.3264736811 1.3264736811 1.3264736811 
1.3264736811 -0.56485954883 -0.56485954883 -0.56485954883 -0.56485954883 -0.16021427257 -0.16021427257 -0.16021427257 -0.16021427257 
-0.020755706917 -0.020755706917 -0.020755706917 -0.020755706917 -0.93495789987 -0.93495789987 -0.93495789987 -0.93495789987 -2.1383886502 
-2.1383886502 -2.1383886502 -2.1383886502 -3.439487218 -3.439487218 -3.439487218 -3.439487218 -0.76604889663 -0.76604889663 
-0.76604889663 -0.76604889663 -5.2281786176 -5.2281786176 1.4061738225 1.4061738225 2.8266864509 2.8266864509 2.8266864509 
2.8266864509 1.3264736811 1.3264736811 1.3264736811 1.3264736811 -0.56485954883 -0.56485954883 -0.56485954883 -0.56485954883 
0.13968030939 0.13968030939 0.13968030939 0.13968030939 -0.082340571118 -0.082340571118 -0.082340571118 -0.082340571118 -1.0032008873 
-1.0032008873 -1.0032008873 -1.0032008873 -0.69175352952 -0.69175352952 -0.69175352952 -0.69175352952 0.022806635437 0.022806635437 
0.022806635437 0.022806635437 0.95231530071 0.95231530071 0.95231530071 0.95231530071 0.32662388206 0.32662388206 0.32662388206 
0.32662388206 1.9588651162 1.9588651162 1.9588651162 1.9588651162 0.87506436734 0.87506436734 0.87506436734 0.87506436734 
0.0038857050339 0.0038857050339 0.0038857050339 0.0038857050339 0.13968030939 0.13968030939 0.13968030939 0.13968030939 -0.082340571118 
-0.082340571118 -0.082340571118 -0.082340571118 -1.0032008873 -1.0032008873 -1.0032008873 -1.0032008873 -0.69175352952 -0.69175352952 
-0.69175352952 -0.69175352952 0.022806635437 0.022806635437 0.022806635437 0.022806635437 0.95231530071 0.95231530071 0.95231530071 
0.95231530071 0.32662388206 0.32662388206 0.32662388206 0.32662388206 1.9588651162 1.9588651162 1.9588651162 1.9588651162 
0.87506436734 0.87506436734 0.87506436734 0.87506436734 0.0038857050339 0.0038857050339 0.0038857050339 0.0038857050339 0.13968030939 
0.13968030939 0.13968030939 0.13968030939 -0.082340571118 -0.082340571118 -0.082340571118 -0.082340571118 -1.0032008873 -1.0032008873 
-1.0032008873 -1.0032008873 -0.69175352952 -0.69175352952 -0.69175352952 -0.69175352952 0.022806635437 0.022806635437 0.022806635437 
0.022806635437 0.95231530071 0.95231530071 0.95231530071 0.95231530071 0.32662388206 0.32662388206 0.32662388206 0.32662388206 
1.9588651162 1.9588651162 1.9588651162 1.9588651162 0.87506436734 0.87506436734 0.87506436734 0.87506436734 0.0038857050339 
0.0038857050339 0.0038857050339 0.0038857050339 0.13968030939 0.13968030939 0.13968030939 0.13968030939 -0.082340571118 -0.082340571118 
-0.082340571118 -0.082340571118 -1.0032008873 -1.0032008873 -1.0032008873 -1.0032008873 -0.69175352952 -0.69175352952 -0.69175352952 
-0.69175352952 0.022806635437 0.022806635437 0.022806635437 0.022806635437 0.95231530071 0.95231530071 0.95231530071 0.95231530071 
0.32662388206 0.32662388206 0.32662388206 0.32662388206 1.9588651162 1.9588651162 1.9588651162 1.9588651162 0.87506436734 
0.87506436734 0.87506436734 0.87506436734 0.0038857050339 0.0038857050339 0.0038857050339 0.0038857050339 -0.045156917395 -0.045156917395 
-0.045156917395 -0.045156917395 -0.43917196042 -0.43917196042 -0.43917196042 -0.43917196042 -0.49355855324 -0.49355855324 -0.49355855324 
-0.49355855324 -0.63256268828 -0.63256268828 -0.63256268828 -0.63256268828 -0.5867834932 -0.5867834932 -0.5867834932 -0.5867834932 
-0.016905976881 -0.016905976881 -0.016905976881 -0.016905976881 0.01287527017 0.01287527017 0.01287527017 0.01287527017 -0.39054312007 
-0.39054312007 -0.39054312007 -0.39054312007 0.071466391273 0.071466391273 0.071466391273 0.071466391273 0.020264774375 0.020264774375 
0.020264774375 0.020264774375 -0.045156917395 -0.045156917395 -0.045156917395 -0.045156917395 -0.43917196042 -0.43917196042 -0.43917196042 
-0.43917196042 -0.49355855324 -0.49355855324 -0.49355855324 -0.49355855324 -0.63256268828 -0.63256268828 -0.63256268828 -0.63256268828 
-0.5867834932 -0.5867834932 -0.5867834932 -0.5867834932 -0.016905976881 -0.016905976881 -0.016905976881 -0.016905976881 0.01287527017 
0.01287527017 0.01287527017 0.01287527017 -0.39054312007 -0.39054312007 -0.39054312007 -0.39054312007 0.071466391273 0.071466391273 
0.071466391273 0.071466391273 0.020264774375 0.020264774375 0.020264774375 0.020264774375 -0.045156917395 -0.045156917395 -0.045156917395 
-0.045156917395 -0.43917196042 -0.43917196042 -0.43917196042 -0.43917196042 -0.49355855324 -0.49355855324 -0.49355855324 -0.49355855324 
-0.63256268828 -0.63256268828 -0.63256268828 -0.63256268828 -0.5867834932 -0.5867834932 -0.5867834932 -0.5867834932 -0.016905976881 
-0.016905976881 -0.016905976881 -0.016905976881 0.01287527017 0.01287527017 0.01287527017 0.01287527017 -0.39054312007 -0.39054312007 
-0.39054312007 -0.39054312007 0.071466391273 0.071466391273 0.071466391273 0.071466391273 0.020264774375 0.020264774375 0.020264774375 
0.020264774375 -0.045156917395 -0.045156917395 -0.045156917395 -0.045156917395 -0.43917196042 -0.43917196042 -0.43917196042 -0.43917196042 
-0.49355855324 -0.49355855324 -0.49355855324 -0.49355855324 -0.63256268828 -0.63256268828 -0.63256268828 -0.63256268828 -0.5867834932 
-0.5867834932 -0.5867834932 -0.5867834932 -0.016905976881 -0.016905976881 -0.016905976881 -0.016905976881 0.01287527017 0.01287527017 
0.01287527017 0.01287527017 -0.39054312007 -0.39054312007 -0.39054312007 -0.39054312007 0.071466391273 0.071466391273 0.071466391273 
0.071466391273 0.020264774375 0.020264774375 0.020264774375 0.020264774375 0.17232912502 0.17232912502 0.17232912502 0.17232912502 
-0.15788173152 -0.15788173152 -0.15788173152 -0.15788173152 -1.0910190156 -1.0910190156 -1.0910190156 -1.0910190156 -2.1969937572 
-2.1969937572 -2.1969937572 -2.1969937572 -1.6031070647 -1.6031070647 -1.6031070647 -1.6031070647 -0.0012016514058 -0.0012016514058 
-0.0012016514058 -0.0012016514058 -0.07246723343 -0.07246723343 -0.07246723343 -0.07246723343 -0.51498494469 -0.51498494469 -0.51498494469 
-0.51498494469 0.1033634011 0.1033634011 0.1033634011 0.1033634011 0.3146146227 0.3146146227 0.3146146227 0.3146146227 
0.17232912502 0.17232912502 0.17232912502 0.17232912502 -0.15788173152 -0.15788173152 -0.15788173152 -0.15788173152 -1.0910190156 
-1.0910190156 -1.0910190156 -1.0910190156 -2.1969937572 -2.1969937572 -2.1969937572 -2.1969937572 -1.6031070647 -1.6031070647 
-1.6031070647 -1.6031070647 -0.0012016514058 -0.0012016514058 -0.0012016514058 -0.0012016514058 -0.07246723343 -0.07246723343 -0.07246723343 
-0.07246723343 -0.51498494469 -0.51498494469 -0.51498494469 -0.51498494469 0.1033634011 0.1033634011 0.1033634011 0.1033634011 
0.3146146227 0.3146146227 0.3146146227 0.3146146227 0.17232912502 0.17232912502 0.17232912502 0.17232912502 -0.15788173152 
-0.15788173152 -0.15788173152 -0.15788173152 -1.0910190156 -1.0910190156 -1.0910190156 -1.0910190156 -2.1969937572 -2.1969937572 
-2.1969937572 -2.1969937572 -1.6031070647 -1.6031070647 -1.6031070647 -1.6031070647 -0.0012016514058 -0.0012016514058 -0.0012016514058 
-0.0012016514058 -0.07246723343 -0.07246723343 -0.07246723343 -0.07246723343 -0.51498494469 -0.51498494469 -0.51498494469 -0.51498494469 
0.1033634011 0.1033634011 0.1033634011 0.1033634011 0.3146146227 0.3146146227 0.3146146227 0.3146146227 0.17232912502 
0.17232912502 0.17232912502 0.17232912502 -0.15788173152 -0.15788173152 -0.15788173152 -0.15788173152 -1.0910190156 -1.0910190156 
-1.0910190156 -1.0910190156 -2.1969937572 -2.1969937572 -2.1969937572 -2.1969937572 -1.6031070647 -1.6031070647 -1.6031070647 
-1.6031070647 -0.0012016514058 -0.0012016514058 -0.0012016514058 -0.0012016514058 -0.07246723343 -0.07246723343 -0.07246723343 -0.07246723343 
-0.51498494469 -0.51498494469 -0.51498494469 -0.51498494469 0.1033634011 0.1033634011 0.1033634011 0.1033634011 0.3146146227 
0.3146146227 0.3146146227 0.3146146227 -0.042327657227 -0.042327657227 -0.042327657227 -0.042327657227 0.9489927959 0.9489927959 
0.9489927959 0.9489927959 -1.2690040325 -1.2690040325 -1.2690040325 -1.2690040325 -5.2555832702 -5.2555832702 -2.105105042 
-2.105105042 -2.1098221038 -2.1098221038 -3.1159747244 -3.1159747244 -1.1891052597 -1.1891052597 -1.1891052597 -1.1891052597 
1.151758602 1.151758602 -6.5328389067 -6.5328389067 -3.2154069484 -3.2154069484 0.49417680818 0.49417680818 0.99116022454 
0.99116022454 0.99116022454 0.99116022454 0.73147202871 0.73147202871 0.73147202871 0.73147202871 -0.042327657227 -0.042327657227 
-0.042327657227 -0.042327657227 0.9489927959 0.9489927959 0.9489927959 0.9489927959 -1.2690040325 -1.2690040325 -1.2690040325 
-1.2690040325 -5.2555832702 -5.2555832702 -2.105105042 -2.105105042 -2.1098221038 -2.1098221038 -3.1159747244 -3.1159747244 
-1.1891052597 -1.1891052597 -1.1891052597 -1.1891052597 1.151758602 1.151758602 -6.5328389067 -6.5328389067 -3.2154069484 
-3.2154069484 0.49417680818 0.49417680818 0.99116022454 0.99116022454 0.99116022454 0.99116022454 0.73147202871 0.73147202871 
0.73147202871 0.73147202871 -0.042327657227 -0.042327657227 -0.042327657227 -0.042327657227 0.9489927959 0.9489927959 0.9489927959 
0.9489927959 -1.2690040325 -1.2690040325 -1.2690040325 -1.2690040325 5.7485934462 5.7485934462 13.617224925 13.617224925 
8.6655346738 8.6655346738 -6.6949795165 -6.6949795165 -1.1891052597 -1.1891052597 -1.1891052597 -1.1891052597 -5.7853167215 
-5.7853167215 -17.171719592 -17.171719592 -14.775433666 -14.775433666 -4.7783434891 -4.7783434891 0.99116022454 0.99116022454 
0.99116022454 0.99116022454 0.73147202871 0.73147202871 0.73147202871 0.73147202871 -0.042327657227 -0.042327657227 -0.042327657227 
-0.042327657227 0.9489927959 0.9489927959 0.9489927959 0.9489927959 -1.2690040325 -1.2690040325 -1.2690040325 -1.2690040325 
5.7485934462 5.7485934462 13.617224925 13.617224925 8.6655346738 8.6655346738 -6.6949795165 -6.6949795165 -1.1891052597 
-1.1891052597 -1.1891052597 -1.1891052597 -5.7853167215 -5.7853167215 -17.171719592 -17.171719592 -14.775433666 -14.775433666 