# vtk DataFile Version 3.0
Gravity inversion using rectangular prisms
ASCII
DATASET UNSTRUCTURED_GRID

POINTS	1515	double
100	100	100
100	100	300
100	100	500
100	100	700
100	100	900
100	300	100
100	300	300
100	300	500
100	300	700
100	300	900
100	500	100
100	500	300
100	500	500
100	500	700
100	500	900
100	700	100
100	700	300
100	700	500
100	700	700
100	700	900
100	900	100
100	900	300
100	900	500
100	900	700
100	900	900
100	1100	100
100	1100	300
100	1100	500
100	1100	700
100	1100	900
100	1300	100
100	1300	300
100	1300	500
100	1300	700
100	1300	900
100	1500	100
100	1500	300
100	1500	500
100	1500	700
100	1500	900
100	1700	100
100	1700	300
100	1700	500
100	1700	700
100	1700	900
100	1900	100
100	1900	300
100	1900	500
100	1900	700
100	1900	900
300	100	100
300	100	300
300	100	500
300	100	700
300	100	900
300	300	100
300	300	300
300	300	500
300	300	700
300	300	900
300	500	100
300	500	300
300	500	500
300	500	700
300	500	900
300	700	100
250	650	250
250	650	350
250	750	250
250	750	350
350	650	250
350	650	350
350	750	250
350	750	350
300	700	500
300	700	700
300	700	900
300	900	100
300	900	300
300	900	500
300	900	700
300	900	900
300	1100	100
300	1100	300
300	1100	500
300	1100	700
300	1100	900
300	1300	100
300	1300	300
300	1300	500
300	1300	700
300	1300	900
300	1500	100
300	1500	300
300	1500	500
300	1500	700
300	1500	900
300	1700	100
300	1700	300
300	1700	500
300	1700	700
300	1700	900
300	1900	100
300	1900	300
300	1900	500
300	1900	700
300	1900	900
500	100	100
500	100	300
500	100	500
500	100	700
500	100	900
500	300	100
500	300	300
500	300	500
500	300	700
500	300	900
500	500	100
450	450	250
450	450	350
450	550	250
450	550	350
550	450	250
550	450	350
550	550	250
550	550	350
500	500	500
500	500	700
500	500	900
450	650	50
450	650	150
450	750	50
450	750	150
550	650	50
550	650	150
550	750	50
550	750	150
425	625	225
425	625	275
425	675	225
425	675	275
475	625	225
475	625	275
475	675	225
475	675	275
450	650	350
450	750	250
450	750	350
525	625	225
525	625	275
525	675	225
525	675	275
575	625	225
575	625	275
575	675	225
575	675	275
550	650	350
525	725	225
525	725	275
525	775	225
525	775	275
575	725	225
575	725	275
575	775	225
575	775	275
550	750	350
500	700	500
500	700	700
500	700	900
500	900	100
450	850	250
450	850	350
450	950	250
450	950	350
550	850	250
550	850	350
550	950	250
550	950	350
500	900	500
500	900	700
500	900	900
500	1100	100
500	1100	300
500	1100	500
500	1100	700
500	1100	900
500	1300	100
500	1300	300
500	1300	500
500	1300	700
500	1300	900
500	1500	100
500	1500	300
500	1500	500
500	1500	700
500	1500	900
500	1700	100
500	1700	300
500	1700	500
500	1700	700
500	1700	900
500	1900	100
500	1900	300
500	1900	500
500	1900	700
500	1900	900
700	100	100
700	100	300
700	100	500
700	100	700
700	100	900
700	300	100
700	300	300
700	300	500
700	300	700
700	300	900
650	450	50
650	450	150
650	550	50
650	550	150
750	450	50
750	450	150
750	550	50
750	550	150
650	450	250
650	450	350
650	550	250
650	550	350
750	450	250
750	450	350
750	550	250
750	550	350
700	500	500
700	500	700
700	500	900
625	625	25
625	625	75
625	675	25
625	675	75
675	625	25
675	625	75
675	675	25
675	675	75
625	625	125
625	625	175
625	675	125
625	675	175
675	625	125
675	625	175
675	675	125
675	675	175
650	750	50
625	725	125
625	725	175
625	775	125
625	775	175
675	725	125
675	725	175
675	775	125
675	775	175
725	625	25
725	625	75
725	675	25
725	675	75
775	625	25
775	625	75
775	675	25
775	675	75
725	625	125
725	625	175
725	675	125
725	675	175
775	625	125
775	625	175
775	675	125
775	675	175
750	750	50
725	725	125
725	725	175
725	775	125
725	775	175
775	725	125
775	725	175
775	775	125
775	775	175
625	625	225
625	625	275
625	675	225
625	675	275
675	625	225
675	625	275
675	675	225
675	675	275
625	625	325
625	625	375
625	675	325
625	675	375
675	625	325
675	625	375
675	675	325
675	675	375
625	725	225
625	725	275
625	775	225
625	775	275
675	725	225
675	725	275
675	775	225
675	775	275
625	725	325
625	725	375
625	775	325
625	775	375
675	725	325
675	725	375
675	775	325
675	775	375
750	650	250
750	650	350
750	750	250
750	750	350
650	650	450
650	650	550
650	750	450
650	750	550
750	650	450
750	650	550
750	750	450
750	750	550
700	700	700
700	700	900
650	850	50
650	850	150
650	950	50
650	950	150
750	850	50
750	850	150
750	950	50
750	950	150
625	825	225
625	825	275
625	875	225
625	875	275
675	825	225
675	825	275
675	875	225
675	875	275
650	850	350
650	950	250
650	950	350
750	850	250
750	850	350
750	950	250
750	950	350
700	900	500
700	900	700
700	900	900
650	1050	50
650	1050	150
650	1150	50
650	1150	150
750	1050	50
750	1050	150
750	1150	50
750	1150	150
650	1050	250
650	1050	350
650	1150	250
650	1150	350
750	1050	250
750	1050	350
725	1125	225
725	1125	275
725	1175	225
725	1175	275
775	1125	225
775	1125	275
775	1175	225
775	1175	275
750	1150	350
700	1100	500
700	1100	700
700	1100	900
700	1300	100
650	1250	250
650	1250	350
650	1350	250
650	1350	350
750	1250	250
750	1250	350
750	1350	250
750	1350	350
700	1300	500
700	1300	700
700	1300	900
700	1500	100
650	1450	250
650	1450	350
650	1550	250
650	1550	350
750	1450	250
750	1450	350
750	1550	250
750	1550	350
700	1500	500
700	1500	700
700	1500	900
700	1700	100
700	1700	300
700	1700	500
700	1700	700
700	1700	900
700	1900	100
700	1900	300
700	1900	500
700	1900	700
700	1900	900
900	100	100
900	100	300
900	100	500
900	100	700
900	100	900
900	300	100
900	300	300
900	300	500
900	300	700
900	300	900
850	450	50
850	450	150
850	550	50
850	550	150
950	450	50
950	450	150
950	550	50
950	550	150
850	450	250
850	450	350
850	550	250
850	550	350
950	450	250
950	450	350
950	550	250
950	550	350
900	500	500
900	500	700
900	500	900
825	625	25
825	625	75
825	675	25
825	675	75
875	625	25
875	625	75
875	675	25
875	675	75
825	625	125
825	625	175
825	675	125
825	675	175
875	625	125
875	625	175
875	675	125
875	675	175
850	750	50
850	750	150
950	650	50
925	625	125
925	625	175
925	675	125
925	675	175
975	625	125
975	625	175
975	675	125
975	675	175
950	750	50
950	750	150
850	650	250
850	650	350
850	750	250
850	750	350
925	625	225
925	625	275
925	675	225
925	675	275
975	625	225
975	625	275
975	675	225
975	675	275
925	625	325
925	625	375
925	675	325
925	675	375
975	625	325
975	625	375
975	675	325
975	675	375
925	725	225
925	725	275
925	775	225
925	775	275
975	725	225
975	725	275
975	775	225
975	775	275
925	725	325
925	725	375
925	775	325
925	775	375
975	725	325
975	725	375
975	775	325
975	775	375
850	650	450
850	650	550
850	750	450
850	750	550
950	650	450
950	650	550
950	750	450
950	750	550
900	700	700
900	700	900
850	850	50
850	850	150
850	950	50
850	950	150
950	850	50
925	825	125
925	825	175
925	875	125
925	875	175
975	825	125
975	825	175
975	875	125
975	875	175
950	950	50
950	950	150
850	850	250
850	850	350
850	950	250
850	950	350
950	850	250
950	850	350
950	950	250
950	950	350
850	850	450
850	850	550
850	950	450
850	950	550
950	850	450
950	850	550
950	950	450
950	950	550
900	900	700
900	900	900
900	1100	100
850	1050	250
850	1050	350
850	1150	250
850	1150	350
950	1050	250
950	1050	350
950	1150	250
950	1150	350
900	1100	500
900	1100	700
900	1100	900
850	1250	50
850	1250	150
850	1350	50
850	1350	150
950	1250	50
950	1250	150
950	1350	50
950	1350	150
825	1225	225
825	1225	275
825	1275	225
825	1275	275
875	1225	225
875	1225	275
875	1275	225
875	1275	275
850	1250	350
825	1325	225
825	1325	275
825	1375	225
825	1375	275
875	1325	225
875	1325	275
875	1375	225
875	1375	275
850	1350	350
925	1225	225
925	1225	275
925	1275	225
925	1275	275
975	1225	225
975	1225	275
975	1275	225
975	1275	275
950	1250	350
925	1325	225
925	1325	275
925	1375	225
925	1375	275
975	1325	225
975	1325	275
975	1375	225
975	1375	275
950	1350	350
900	1300	500
900	1300	700
900	1300	900
850	1450	50
850	1450	150
850	1550	50
850	1550	150
950	1450	50
950	1450	150
950	1550	50
950	1550	150
825	1425	225
825	1425	275
825	1475	225
825	1475	275
875	1425	225
875	1425	275
875	1475	225
875	1475	275
850	1450	350
825	1525	225
825	1525	275
825	1575	225
825	1575	275
875	1525	225
875	1525	275
875	1575	225
875	1575	275
850	1550	350
925	1425	225
925	1425	275
925	1475	225
925	1475	275
975	1425	225
975	1425	275
975	1475	225
975	1475	275
950	1450	350
925	1525	225
925	1525	275
925	1575	225
925	1575	275
975	1525	225
975	1525	275
975	1575	225
975	1575	275
950	1550	350
850	1450	450
850	1450	550
850	1550	450
850	1550	550
950	1450	450
950	1450	550
950	1550	450
950	1550	550
900	1500	700
900	1500	900
900	1700	100
850	1650	250
850	1650	350
850	1750	250
850	1750	350
950	1650	250
950	1650	350
950	1750	250
950	1750	350
900	1700	500
900	1700	700
900	1700	900
900	1900	100
900	1900	300
900	1900	500
900	1900	700
900	1900	900
1100	100	100
1100	100	300
1100	100	500
1100	100	700
1100	100	900
1100	300	100
1100	300	300
1100	300	500
1100	300	700
1100	300	900
1100	500	100
1050	450	250
1050	450	350
1050	550	250
1050	550	350
1150	450	250
1150	450	350
1150	550	250
1150	550	350
1100	500	500
1100	500	700
1100	500	900
1050	650	50
1050	650	150
1050	750	50
1050	750	150
1150	650	50
1150	650	150
1150	750	50
1150	750	150
1025	625	225
1025	625	275
1025	675	225
1025	675	275
1075	625	225
1075	625	275
1075	675	225
1075	675	275
1050	650	350
1025	725	225
1025	725	275
1025	775	225
1025	775	275
1075	725	225
1075	725	275
1075	775	225
1075	775	275
1050	750	350
1150	650	250
1150	650	350
1150	750	250
1150	750	350
1100	700	500
1100	700	700
1100	700	900
1050	850	50
1050	850	150
1050	950	50
1050	950	150
1150	850	50
1150	850	150
1150	950	50
1150	950	150
1050	850	250
1050	850	350
1050	950	250
1050	950	350
1150	850	250
1150	850	350
1150	950	250
1150	950	350
1100	900	500
1100	900	700
1100	900	900
1050	1050	50
1050	1050	150
1050	1150	50
1050	1150	150
1150	1050	50
1150	1050	150
1150	1150	50
1150	1150	150
1050	1050	250
1050	1050	350
1050	1150	250
1050	1150	350
1150	1050	250
1150	1050	350
1150	1150	250
1150	1150	350
1050	1050	450
1050	1050	550
1050	1150	450
1050	1150	550
1150	1050	450
1150	1050	550
1150	1150	450
1150	1150	550
1100	1100	700
1100	1100	900
1050	1250	50
1025	1225	125
1025	1225	175
1025	1275	125
1025	1275	175
1075	1225	125
1075	1225	175
1075	1275	125
1075	1275	175
1025	1325	25
1025	1325	75
[...]
CELL_DATA	1515
SCALARS model double 1
LOOKUP_TABLE table0
0.668583
-3.16884
-5.46572
-2.98872
-0.606253
0.955914
-0.67104
-6.39243
-2.16307
0.562868
0.473732
6.72328
-8.08471
-1.67558
1.75589
1.32132
-15.54
-18.0779
-3.89025
1.86171
0.160954
2.90159
-14.209
-6.28686
0.158937
-0.00894036
-2.72196
-11.366
-8.25255
-3.18003
0.0661177
0.758177
-8.59401
-8.75201
-6.36808
0.49405
-1.6491
-6.3196
-7.15868
-7.70369
0.195946
2.45125
0.336193
-3.97943
-8.20501
-0.134379
1.31682
2.60593
-2.76191
-8.59548
0.675302
7.08719
-1.79187
1.14679
2.30876
2.26545
-15.8497
-1.62769
3.99729
4.42898
2.6871
-6.99538
6.06176
9.21299
7.48597
1.73902
8.20584
2.71893
30.5355
8.95813
-29.6474
-4.22811
-13.8465
1.0448
12.5506
14.2
10.5171
-0.088668
0.611043
6.46907
13.2963
11.4291
-0.65089
-3.08047
-3.85433
6.22685
8.84581
-0.115463
2.77065
-4.14783
0.543407
4.27436
0.307664
-4.95357
-6.93718
-3.19789
-0.658123
0.512863
-4.1682
-5.22095
-5.80358
-6.63684
-0.010806
3.59734
-2.59254
-7.37205
-10.6221
1.42508
-11.7208
-0.240586
2.37648
2.85043
2.76426
-6.51343
6.71522
6.33688
4.98844
7.55315
0.7715
23.1088
-4.3808
20.6969
24.4789
27.49
42.8977
33.0324
26.3479
13.7374
8.22611
10.6367
9.27183
5.34865
5.71672
16.8868
49.2759
17.4623
59.0961
-18.3472
-6.78826
-10.1071
-3.39663
11.2242
6.71891
15.6579
12.775
11.4677
19.4863
18.194
35.9609
33.3284
48.6418
50.3919
79.4913
86.1783
92.7604
97.4902
71.6114
58.4394
62.903
63.7729
67.9209
97.7862
100.671
99.4985
101.053
87.2313
58.7527
23.6307
12.0571
6.52904
5.13732
9.05564
-28.9573
-13.3375
57.4831
53.9924
-1.74202
16.3533
51.2322
27.5579
14.6542
1.28265
-20.6212
10.1206
20.1059
14.6242
-0.941311
-17.4956
-1.83642
11.8949
12.9034
0.0742084
-6.2781
-4.77843
4.87966
8.68405
0.543802
2.4199
-8.44164
-5.37055
-1.84142
0.155005
-0.98639
-11.2359
-11.9699
-10.9235
0.138797
-0.917444
2.04977
2.44364
2.37855
1.7336
12.5453
8.16157
5.28962
3.53926
3.17391
26.8575
23.931
81.5633
7.21444
31.8328
21.8649
88.7482
36.4992
57.3242
106.991
85.8984
86.4727
76.0231
144.245
99.95
25.536
10.4999
5.10718
12.1738
43.9539
9.60045
35.0513
20.6754
62.7397
16.7469
54.9978
68.1922
98.4298
65.1493
101.48
97.3329
127.325
94.7464
134.627
32.5509
77.6654
110.891
81.6783
111.977
97.7042
136.35
92.6379
131.93
22.9096
66.6636
22.6025
69.472
20.909
62.7794
23.0591
69.386
96.3954
145.383
101.585
151.768
97.4632
137.026
98.1717
148.088
34.3373
107.573
151.404
91.2756
138.806
103.724
147.706
94.5852
139.161
114.523
105.198
124.998
132.65
156.599
161.83
162.777
184.651
101.354
84.8538
120.031
119.918
143.963
149.456
154.692
173.676
131.978
141.816
129.223
136.788
163.122
181.716
159.191
173.964
129.87
129.924
132.989
130.021
161.3
170.301
161.712
158.632
272.957
235.281
248.095
235.502
68.9949
57.7959
78.8666
63.152
74.8649
61.9021
82.0918
65.8004
18.4724
6.97796
19.961
69.0715
6.7088
7.03584
14.2159
62.3912
6.17864
19.1252
110.075
117.51
77.2302
90.2229
128.198
138.784
97.2243
112.188
127.824
19.0393
66.483
141.486
142.252
51.7661
86.6878
79.0831
24.1468
8.81837
6.33721
-15.6483
-3.46942
-17.5803
-5.62832
-7.13183
-2.23846
-5.81254
-26.3949
-14.3424
-17.848
-31.6673
4.60712
-9.28087
-2.2225
1.59229
-3.18993
-0.172947
11.5876
12.2678
7.35709
9.55805
-23.7748
40.9855
24.5395
11.48
-3.64937
-3.54053
-4.58941
16.8208
10.5732
9.1374
6.80044
27.6884
29.7625
32.6468
27.6057
16.5442
-2.42951
-2.10393
1.47168
-38.5406
-17.8883
31.3748
28.0743
-2.56816
-2.77727
20.9375
24.5468
19.2682
1.44321
-21.8792
-10.1391
1.62345
7.83758
0.0779623
10.0132
-15.127
-12.2525
-7.23775
-0.348171
2.04595
1.92982
1.7571
1.52062
-0.355521
10.1849
4.62585
2.40587
1.15063
5.22746
15.8902
13.5041
61.6733
-4.2352
28.1892
4.78739
77.8019
61.3595
40.7858
104.29
59.2484
66.5747
43.4466
90.2102
54.1391
9.35054
2.28215
-0.221039
15.2571
45.9488
17.0261
52.2999
9.17555
31.6563
10.3576
37.3308
76.5685
128.089
88.7794
140.526
54.7219
109.658
65.4618
115.255
36.7868
98.1231
3.99184
68.4277
87.8522
42.4229
70.5559
34.7821
63.4687
9.48852
41.741
7.30551
32.3274
217.506
172.955
200.435
174.364
123.184
172.296
113.765
167.63
91.3849
101.098
72.6097
98.3424
164.474
136.309
181.242
157.747
115.461
104.709
123.999
117.901
107.099
148.811
101.832
129.941
59.0421
79.3427
53.4857
69.7
167.841
152.926
143.298
138.393
106.476
107.234
90.1851
95.7451
33.867
23.3521
38.7662
26.2747
28.1779
22.6214
29.8496
23.8999
1.55479
-2.56227
7.97083
44.3227
-1.25534
16.7344
3.08134
28.387
41.4707
13.7371
29.7389
1.93303
27.8625
-2.50582
23.4032
-6.02569
-4.30077
134.383
129.306
72.7222
101.916
113.778
115.079
79.0459
106.046
46.729
37.1188
43.6376
37.37
40.7703
34.9921
42.4407
36.7491
2.49892
-3.69583
-8.41365
29.0048
46.1758
20.7218
37.3183
41.3033
49.7367
31.3556
47.3567
43.1642
12.2925
1.02493
-2.66458
8.49834
1.22908
22.2326
3.97449
23.3408
22.996
62.3588
20.8369
32.2784
23.0646
36.2512
27.8549
38.7314
41.145
58.7963
42.2543
30.5993
51.8803
46.6546
64.8934
56.9644
75.3596
63.6189
81.4985
78.8964
31.6483
52.7567
55.0854
72.1686
43.6048
60.9143
79.3079
89.1032
75.831
73.3896
91.6847
88.2151
109.934
96.6442
117.752
99.2952
128.751
134.145
91.6898
35.1638
13.4845
2.87524
43.8975
-1.48613
13.3861
19.1121
67.7492
12.1924
38.787
56.4365
67.0013
45.087
52.6576
71.6162
84.7809
63.7522
74.984
78.2624
30.8562
31.1718
12.0717
11.1938
46.9931
49.8655
25.9497
28.2197
45.1589
73.458
100.53
58.318
85.8352
86.921
120.095
83.7845
112.593
141.22
60.5498
73.0154
43.4249
50.7547
78.8238
94.2511
62.3133
73.9052
85.8133
90.8846
86.7332
57.335
71.0791
129.218
108.587
100.732
97.5636
50.6816
25.9362
0.0912726
-14.2388
-7.89464
-6.07631
-12.6748
12.7814
20.3038
-1.48915
-7.81389
6.69906
18.1803
19.2931
1.40646
-13.2415
-15.5848
-7.14171
-0.699861
-0.0769984
0.738968
0.989096
0.894425
0.64352
0.0368709
0.840824
-0.0638763
-0.850274
-1.39943
-0.755473
-21.6498
-23.3265
-19.7269
-23.5555
-27.9645
-24.3265
-38.7721
-27.6425
-10.4859
-7.33233
-6.08742
2.10074
10.9633
1.3034
-8.79953
-3.81827
-68.74
-9.15741
-22.8388
59.3689
40.812
36.4187
31.2519
-27.7267
-67.4527
-30.5601
-64.7699
-66.3052
12.1703
14.7657
-1.31855
3.58396
-37.448
-61.876
-38.7109
-55.939
-67.5103
-146.242
-96.1013
-126.27
-93.7095
-35.3026
-19.7779
-13.319
-1.60682
-8.39897
-10.1992
-11.4849
-14.3752
-15.9253
-11.8505
-12.5547
-18.6428
-16.2644
5.88231
2.59957
-28.6459
-22.9263
27.862
3.31756
-34.7227
-25.3037
-17.7145
-8.53283
-16.7171
-3.62524
-16.5253
-5.63224
-13.0581
-1.03939
-12.1626
56.7285
63.6423
32.2081
56.5869
81.8699
69.5931
48.176
58.9447
19.9376
13.6638
21.0426
17.6262
19.9666
13.0851
19.4135
16.074
-7.93313
-11.1951
11.1813
8.66815
24.3807
43.9539
55.9629
22.7001
40.716
52.9023
74.7002
12.2775
35.3091
13.245
41.8849
13.2174
38.6339
12.7775
41.9566
58.3698
75.5685
63.9498
89.839
61.5094
95.7826
67.2849
102.83
12.0432
49.496
24.6903
64.0243
107.601
75.7221
115.716
63.6733
99.0678
81.2875
114.876
53.4745
72.1495
86.8353
113.861
77.9848
91.5638
99.6571
119.39
154.953
180.102
200.706
145.892
166.547
199.545
193.762
97.5428
90.9955
121.528
101.773
96.2135
90.8348
114.265
99.3268
26.3066
6.1115
22.3588
81.8992
2.54835
47.7959
32.8259
92.6738
15.8702
67.557
129.472
165.215
108.399
146.117
152.436
182.85
127.276
163.238
191.385
90.6883
114.066
70.6797
88.5294
107.933
134.29
80.413
99.9816
125.947
177.229
203.982
144.124
179.045
184.93
212.172
148.993
188.135
190.326
122.006
148.213
86.8312
108.381
123.675
151.984
86.6157
111.712
142.958
168.015
151.333
139.711
136.153
168.372
154.328
150.335
143.186
57.1332
24.306
0.386017
23.0396
36.9819
-20.8922
-16.7134
24.3694
44.5882
-33.0634
-18.8213
39.7377
40.7404
-6.04922
3.58409
44.3298
44.1767
0.355865
11.3207
32.3249
24.3391
1.33219
-15.249
-9.48521
-1.24635
3.99609
0.0638482
0.499226
0.617921
0.360305
0.0245217
-0.0921128
-5.53094
-3.72192
-3.59963
-3.54531
-0.679658
-32.9207
-11.4133
-86.6382
-12.5483
-18.2664
-15.9296
-58.2437
-71.3696
-61.8574
-122.409
-81.871
-63.8483
-57.2615
-110.824
-77.9679
-25.5352
-15.2245
-10.8693
-4.54651
-37.5035
-12.0292
-47.311
-6.07408
-35.8256
-12.1324
-47.7169
-61.0379
-116.27
-77.3195
-128.068
-67.3908
-128.783
-81.9376
-143.864
-14.1277
-48.9758
-16.5287
-46.3917
-13.7736
-50.0564
-16.1488
-51.6536
-88.0369
-114.338
-77.1509
-88.4923
-89.3412
-138.054
-90.8951
-118.094
-15.4752
-48.9605
-16.826
-54.6079
-23.2833
-66.5734
-21.0466
-64.9814
-80.3499
-129.065
-92.5199
-148.362
-99.3432
-131.574
-107.263
-146.906
-12.4899
-46.9526
-17.0637
-56.6891
-10.7691
-46.6522
-13.5633
-50.2279
-85.8236
-142.402
-98.5574
-120.837
-89.7072
-136.158
-93.6571
-105.871
-279.575
-221.008
-179.259
-248.497
-210.048
-246.162
-208.693
-274.694
-241.643
-252.248
-218.087
-268.465
-220.118
-259.384
-220.905
-87.3068
-75.4724
-90.3854
-78.0014
-85.9983
-73.7006
-90.2447
-77.218
-35.1765
-21.0926
-25.0814
-19.1019
-14.2648
-13.2067
-32.4751
-18.659
-11.7494
-12.217
-72.2004
-77.835
-44.5329
-57.4281
-98.5017
-89.3029
-73.9172
-72.7582
-68.2203
-41.4292
-26.0332
-4.84947
-2.90666
5.59352
-3.95527
-2.84532
-2.15921
3.86617
-0.444654
4.07016
6.77107
-12.2673
1.67732
-12.1116
-4.34193
-11.3771
-1.82015
-17.9227
-20.6201
-17.8839
12.7104
42.7731
28.8753
59.8587
105.031
80.3729
127.045
57.8787
119.628
83.1545
136.81
12.0957
33.1296
31.0632
50.6635
81.4805
36.0636
33.7981
53.1396
84.2993
12.6103
42.6832
18.3607
54.5024
11.3655
38.3805
15.4085
48.5622
66.8585
111.995
83.4627
133.511
67.8065
97.807
79.0529
119.914
124.377
137.632
184.232
166.553
143.226
140.069
205.621
167.141
63.1003
58.0063
80.0831
66.179
59.7413
53.7512
73.1384
59.3774
13.1951
-0.178068
28.649
80.7561
125.605
71.351
104.072
85.1781
130.898
72.4325
111.693
7.54336
42.0056
19.3451
58.4336
11.7283
39.9464
18.6811
59.2814
15.7679
48.4531
87.9044
130.622
68.1368
107.411
90.6396
125.051
75.1177
107.654
6.45921
39.5514
71.2039
22.8289
50.0845
47.8368
73.3644
26.3224
54.2843
192.997
192.765
105.478
152.807
199.382
188.883
112.246
144.359
148.925
132.516
145.189
130.726
137.151
122.772
130.355
119.441
42.9831
17.3893
-2.04822
10.3534
1.67434
-4.88245
-0.329784
12.014
-3.51574
-4.4959
28.6034
47.7995
-13.2632
-2.28944
36.9383
45.1939
1.19825
1.91922
31.4355
30.5625
20.4084
-0.0441065
-4.34954
-6.96533
-1.86599
3.32798
-0.130113
3.98417
1.44363
0.431779
-0.0463969
-0.415726
-5.47453
-5.46231
-5.17123
-4.63085
-4.85131
-15.3257
-10.7886
-51.759
-1.62733
-17.0349
-6.4781
-54.2317
-49.2286
-46.9773
-93.7042
-65.7421
-8.08802
-31.4598
-56.3201
-47.6311
-29.7368
-18.2451
-12.6969
-15.8408
-55.3643
-18.8821
-61.9046
-7.78515
-33.0629
-16.1247
-51.1998
-95.1772
-124.538
-107.32
-142.941
-69.6772
-105.791
-88.7045
-125.686
-13.7621
-49.8975
-12.6624
-45.87
-16.5797
-51.2977
-16.6692
-48.9568
-89.1667
-127.199
-67.1399
-101.375
-78.6152
-112.542
-64.3546
-99.4761
-2.39632
-58.8673
-5.23856
-45.4716
-77.3408
-32.4081
-62.3909
-19.3563
-50.8322
-18.6147
-44.5443
-206.937
-164.988
-211.934
-168.571
-142.773
-136.562
-141.406
-137.661
-65.1589
-34.366
-21.584
-23.7606
-20.0495
-7.22866
-9.06327
-7.02931
-22.284
-0.845233
-24.2126
-112.87
-89.5435
-81.3719
-75.4365
-56.4238
-66.417
-30.5496
-58.4553
-50.8289
-33.565
-23.1981
0.238427
-11.0871
-5.29409
5.44217
-0.518155
26.9688
5.19739
19.7694
-1.16793
-14.918
-16.4128
-14.8971
5.47049
46.6829
14.3619
73.2952
-3.20329
34.4818
0.528263
38.1231
118.25
96.8897
164.82
117.322
91.0652
78.3359
105.921
79.8121
26.9456
5.42238
-1.66604
17.8002
74.867
7.57652
40.4874
5.54828
40.4636
0.0113015
17.2129
143.052
175.239
131.579
154.119
109.362
126.474
98.7355
116.016
129.267
83.2256
98.5144
81.8938
87.94
70.1543
81.0231
58.867
50.6316
45.1036
51.1938
79.4857
40.3503
53.7456
73.3907
60.912
69.249
59.9508
47.8756
46.9582
45.3732
46.7037
23.2763
10.4071
0.0414329
-2.64974
13.4598
17.0364
12.5548
1.24638
-14.2792
-17.247
-7.44681
-0.543337
-0.0703337
-1.09861
2.24547
1.54807
1.13117
-0.373103
4.15597
-3.39183
-3.90694
-3.35052
-0.157004
-2.98134
-16.061
-12.6297
-9.38447
3.57389
-26.7027
-0.689501
-13.4321
1.21347
-3.84633
-2.27907
3.14321
-5.64812
-8.99523
-5.22749
-11.3382
12.1462
-5.03096
1.20137
-9.68497
-20.4833
-16.9959
-13.239
0.527506
-4.14823
-9.17453
-11.763
-11.3004
-0.0423555
4.56151
-0.471674
-3.96602
-5.53891
-1.10737
12.4153
7.50336
3.61519
1.19827
0.762744
-3.94566
0.333221
12.2105
8.28484
-17.6444
-3.39529
0.351284
3.2012
13.666
9.47607
6.75355
-0.421163
2.58963
-3.40023
4.51514
6.33548
-0.285843
2.47987
-15.0334
-9.82877
-3.52785
-0.30929
0.0282819
7.44071
6.11941
4.97894
-0.549916
5.42153
4.89383
2.47629
1.71178
-0.211955
0.605139
1.40566
-0.638238
-1.14313
-0.45866
8.14664
4.78553
0.780993
-1.24641
-0.196652
3.87282
5.45165
3.30125
0.857252
0.0870272
0.755234
3.62413
4.16228
3.10182
0.121437
-5.58255
1.79907
4.48301
4.97429
-0.0654317
0.132333
-0.133033
4.3445
6.06168
-0.149924
-3.55276
-7.61927
-0.798345
3.49444
-0.559181
5.59673
-8.41909
-8.23904
-4.20923
SCALARS m0 double 1
LOOKUP_TABLE table1
0
0
0
0
0
0
0
0
0
0
0
0
0
0
0
0
0
0
0
0
0
0
0
0
0
0
0
0
0
0
0
0
0
0
0
0
0
0
0
0
0
0
0
0
0
0
0
0
0
0
0
0
0
0
0
0
0
0
0
0
0
0
0
0
0
0
0
0
0
0
0
0
0
0
0
0
0
0
0
0
0
0
0
0
0
0
0
0
0
0
0
0
0
0
0
0
0
0
0
0
0
0
0
0
0
0
0
0
0
0
0
0
0
0
0
0
0
0
0
0
0
0
0
0
0
0
0
0
0
0
0
0
0
0
0
0
0
0
0
0
0
0
0
0
0
0
0
0
0
0
0
0
0
0
0
0
0
0
0
0
0
0
0
0
0
0
0
0
0
0
0
0
0
0
0
0
0
0
0
0
0
0
0
0
0
0
0
0
0
0
0
0
0
0
0
0
0
0
0
0
0
0
0
0
0
0
0
0
0
0
0
0
0
0
0
0
0
0
0
0
0
0
0
0
0
0
0
0
0
0
0
0
0
0
0
0
0
0
0
0
0
0
0
0
0
0
0
0
0
0
0
0
0
0
0
0
0
0
0
0
0
0
0
0
0
0
0
0
0
0
0
0
0
0
0
0
0
0
0
0
0
0
0
0
0
0
0
0
0
0
0
0
0
0
0
0
0
0
0
0
0
0
0
0
0
0
0
0
0
0
0
0
0
0
0
0
0
0
0
0
0
0
0
0
0
0
0
0
0
0
0
0
0
0
0
0
0
0
0
0
0
0
0
0
0
0
0
0
0
0
0
0
0
0
0
0
0
0
0
0
0
0
0
0
0
0
0
0
0
0
0
0
0
0
0
0
0
0
0
0
0
0
0
0
0
0
0
0
0
0
0
0
0
0
0
0
0
0
0
0
0
0
0
0
0
0
0
0
0
0
0
0
0
0
0
0
0
0
0
0
0
0
0
0
0
0
0
0
0
0
0
0
0
0
0
0
0
0
0
0
0
0
0
0
0
0
0
0
0
0
0
0
0
0
0
0
0
0
0
0
0
0
0
0
0
0
0
0
0
0
0
0
0
0
0
0
0
0
0
0
0
0
0
0
0
0
0
0
0
0
0
0
0
0
0
0
0
0
0
0
0
0
0
0
0
0
0
0
0
0
0
0
0
0
0
0
0
0
0
0
0
0
0
0
0
0
0
0
0
0
0
0
0
0
0
0
0
0
0
0
0
0
0
0
0
0
0
0
0
0
0
0
0
0
0
0
0
0
0
0
0
0
0
0
0
0
0
0
0
0
0
0
0
0
0
0
0
0
0
0
0
0
0
0
0
0
0
0
0
0
0
0
0
0
0
0
0
0
0
0
0
0
0
0
0
0
0
0
0
0
0
0
0
0
0
0
0
0
0
0
0
0
0
0
0
0
0
0
0
0
0
0
0
0
0
0
0
0
0
0
0
0
0
0
0
0
0
0
0
0
0
0
0
0
0
0
0
0
0
0
0
0
0
0
0
0
0
0
0
0
0
0
0
0
0
0
0
0
0
0
0
0
0
0
0
0
0
0
0
0
0
0
0
0
0
0
0
0
0
0
0
0
0
0
0
0
0
0
0
0
0
0
0
0
0
0
0
0
0
0
0
0
0
0
0
0
0
0
0
0
0
0
0
0
0
0
0
0
0
0
0
0
0
0
0
0
0
0
0
0
0
0
0
0
0
0
0
0
0
0
0
0
0
0
0
0
0
0
0
0
0
0
0
0
0
0
0
0
0
0
0
0
0
0
0
0
0
0
0
0
0
0
0
0
0
0
0
0
0
0
0
0
0
0
0
0
0
0
0
0
0
0
0
0
0
0
0
0
0
0
0
0
0
0
0
0
0
0
0
0
0
0
0
0
0
0
0
0
0
0
0
0
0
0
0
0
0
0
0
0
0
0
0
0
0
0
0
0
0
0
0
0
0
0
0
0
0
0
0
0
0
0
0
0
0
0
0
0
0
0
0
0
0
0
0
0
0
0
0
0
0
0
0
0
0
0
0
0
0
0
0
0
0
0
0
0
0
0
0
0
0
0
0
0
0
0
0
0
0
0
0
0
0
0
0
0
0
0
0
0
0
0
0
0
0
0
0
0
0
0
0
0
0
0
0
0
0
0
0
0
0
0
0
0
0
0
0
0
0
0
0
0
0
0
0
0
0
0
0
0
0
0
0
0
0
0
0
0
0
0
0
0
0
0
0
0
0
0
0
0
0
0
0
0
0
0
0
0
0
0
0
0
0
0
0
0
0
0
0
0
0
0
0
0
0
0
0
0
0
0
0
0
0
0
0
0
0
0
0
0
0
0
0
0
0
0
0
0
0
0
0
0
0
0
0
0
0
0
0
0
0
0
0
0
0
0
0
0
0
0
0
0
0
0
0
0
0
0
0
0
0
0
0
0
0
0
0
0
0
0
0
0
0
0
0
0
0
0
0
0
0
0
0
0
0
0
0
0
0
0
0
0
0
0
0
0
0
0
0
0
0
0
0
0
0
0
0
0
0
0
0
0
0
0
0
0
0
0
0
0
0
0
0
0
0
0
0
0
0
0
0
0
0
0
0
0
0
0
0
0
0
0
0
0
0
0
0
0
0
0
0
0
0
0
0
0
0
0
0
0
0
0
0
0
0
0
0
0
0
0
0
0
0
0
0
0
0
0
0
0
0
0
0
0
0
0
0
0
0
0
0
0
0
0
0
0
0
0
0
0
0
0
0
0
0
0
0
0
0
0
0
0
0
0
0
0
0
0
0
0
0
0
0
0
0
0
0
0
0
0
0
0
0
0
0
0
0
0
0
0
0
0
0
0
0
0
0
0
0
0
0
0
0
0
0
0
0
0
0
0
0
0
0
0
0
0
0
0
0
0
0
0
0
0
0
0
0
0
0
0
0
0
0
0
0
0
0
0
0
0
0
0
0
0
0
0
0
0
0
0
0
0
0
0
0
0
0
0
0
0
0
0
0
0
0
0
0
0
0
0
0
0
0
0
0
0
0
0
0
0
0
0
0
0
0
0
0
0
0
0
0
0
0
0
0
0
0
0
0
0
0
0
0
0
0
0
0
0
0
0
0
0
0
0
0
0
0
0
0
0
0
0
0
0
0
0
0
0
0
0
0
0
0
0
0
0
0
0
0
0
0
0
0
0
0
0
0
0
0
0
0
0
0
0
0
0
0
0
0
0
0
0
0
0
0
0
0
0
0
0
0
0
0
0
0
0
0
0
0
0
0
0
0
0
0
0
0
0
0
0
0
0
0
0
0
0
0
0
0
0
0
0
0
0
0
0
0
0
0
0
0
0
0
0
0
0
0
0
0
0
0
0
0
0
0
0
0
0
0
0
0
0
0
0
0
0
0
0
0
0
0
0
0
0
0
0
0
0
0
0
0
0
0
0
0
SCALARS m0s double 1
LOOKUP_TABLE table2
0
0
0
0
0
0
0
0
0
0
0
0
0
0
0
0
0
0
0
0
0
0
0
0
0
0
0
0
0
0
0
0
0
0
0
0
0
0
0
0
0
0
0
0
0
0
0
0
0
0
0
0
0
0
0
0
0
0
0
0
0
0
0
0
0
0
0
0
0
0
0
0
0
0
0
0
0
0
0
0
0
0
0
0
0
0
0
0
0
0
0
0
0
0
0
0
0
0
0
0
0
0
0
0
0
0
0
0
0
0
0
0
0
0
0
0
0
0
0
0
0
0
0
0
0
0
0
0
0
0
0
0
0
0
0
0
0
0
0
0
0
0
0
0
0
0
0
0
0
0
0
0
0
0
0
0
0
0
0
0
0
0
0
0
0
0
0
0
0
0
0
0
0
0
0
0
0
0
0
0
0
0
0
0
0
0
0
0
0
0
0
0
0
0
0
0
0
0
0
0
0
0
0
0
0
0
0
0
0
0
0
0
0
0
0
0
0
0
0
0
0
0
0
0
0
0
0
0
0
0
0
0
0
0
0
0
0
0
0
0
0
0
0
0
0
0
0
0
0
0
0
0
0
0
0
0
0
0
0
0
0
0
0
0
0
0
0
0
0
0
0
0
0
0
0
0
0
0
0
0
0
0
0
0
0
0
0
0
0
0
0
0
0
0
0
0
0
0
0
0
0
0
0
0
0
0
0
0
0
0
0
0
0
0
0
0
0
0
0
0
0
0
0
0
0
0
0
0
0
0
0
0
0
0
0
0
0
0
0
0
0
0
0
0
0
0
0
0
0
0
0
0
0
0
0
0
0
0
0
0
0
0
0
0
0
0
0
0
0
0
0
0
0
0
0
0
0
0
0
0
0
0
0
0
0
0
0
0
0
0
0
0
0
0
0
0
0
0
0
0
0
0
0
0
0
0
0
0
0
0
0
0
0
0
0
0
0
0
0
0
0
0
0
0
0
0
0
0
0
0
0
0
0
0
0
0
0
0
0
0
0
0
0
0
0
0
0
0
0
0
0
0
0
0
0
0
0
0
0
0
0
0
0
0
0
0
0
0
0
0
0
0
0
0
0
0
0
0
0
0
0
0
0
0
0
0
0
0
0
0
0
0
0
0
0
0
0
0
0
0
0
0
0
0
0
0
0
0
0
0
0
0
0
0
0
0
0
0
0
0
0
0
0
0
0
0
0
0
0
0
0
0
0
0
0
0
0
0
0
0
0
0
0
0
0
0
0
0
0
0
0
0
0
0
0
0
0
0
0
0
0
0
0
0
0
0
0
0
0
0
0
0
0
0
0
0
0
0
0
0
0
0
0
0
0
0
0
0
0
0
0
0
0
0
0
0
0
0
0
0
0
0
0
0
0
0
0
0
0
0
0
0
0
0
0
0
0
0
0
0
0
0
0
0
0
0
0
0
0
0
0
0
0
0
0
0
0
0
0
0
0
0
0
0
0
0
0
0
0
0
0
0
0
0
0
0
0
0
0
0
0
0
0
0
0
0
0
0
0
0
0
0
0
0
0
0
0
0
0
0
0
0
0
0
0
0
0
0
0
0
0
0
0
0
0
0
0
0
0
0
0
0
0
0
0
0
0
0
0
0
0
0
0
0
0
0
0
0
0
0
0
0
0
0
0
0
0
0
0
0
0
0
0
0
0
0
0
0
0
0
0
0
0
0
0
0
0
0
0
0
0
0
0
0
0
0
0
0
0
0
0
0
0
0
0
0
0
0
0
0
0
0
0
0
0
0
0
0
0
0
0
0
0
0
0
0
0
0
0
0
0
0
0
0
0
0
0
0
0
0
0
0
0
0
0
0
0
0
0
0
0
0
0
0
0
0
0
0
0
0
0
0
0
0
0
0
0
0
0
0
0
0
0
0
0
0
0
0
0
0
0
0
0
0
0
0
0
0
0
0
0
0
0
0
0
0
0
0
0
0
0
0
0
0
0
0
0
0
0
0
0
0
0
0
0
0
0
0
0
0
0
0
0
0
0
0
0
0
0
0
0
0
0
0
0
0
0
0
0
0
0
0
0
0
0
0
0
0
0
0
0
0
0
0
0
0
0
0
0
0
0
0
0
0
0
0
0
0
0
0
0
0
0
0
0
0
0
0
0
0
0
0
0
0
0
0
0
0
0
0
0
0
0
0
0
0
0
0
0
0
0
0
0
0
0
0
0
0
0
0
0
0
0
0
0
0
0
0
0
0
0
0
0
0
0
0
0
0
0
0
0
0
0
0
0
0
0
0
0
0
0
0
0
0
0
0
0
0
0
0
0
0
0
0
0
0
0
0
0
0
0
0
0
0
0
0
0
0
0
0
0
0
0
0
0
0
0
0
0
0
0
0
0
0
0
0
0
0
0
0
0
0
0
0
0
0
0
0
0
0
0
0
0
0
0
0
0
0
0
0
0
0
0
0
0
0
0
0
0
0
0
0
0
0
0
0
0
0
0
0
0
0
0
0
0
0
0
0
0
0
0
0
0
0
0
0
0
0
0
0
0
0
0
0
0
0
0
0
0
0
0
0
0
0
0
0
0
0
0
0
0
0
0
0
0
0
0
0
0
0
0
0
0
0
0
0
0
0
0
0
0
0
0
0
0
0
0
0
0
0
0
0
0
0
0
0
0
0
0
0
0
0
0
0
0
0
0
0
0
0
0
0
0
0
0
0
0
0
0
0
0
0
0
0
0
0
0
0
0
0
0
0
0
0
0
0
0
0
0
0
0
0
0
0
0
0
0
0
0
0
0
0
0
0
0
0
0
0
0
0
0
0
0
0
0
0
0
0
0
0
0
0
0
0
0
0
0
0
0
0
0
0
0
0
0
0
0
0
0
0
0
0
0
0
0
0
0
0
0
0
0
0
0
0
0
0
0
0
0
0
0
0
0
0
0
0
0
0
0
0
0
0
0
0
0
0
0
0
0
0
0
0
0
0
0
0
0
0
0
0
0
0
0
0
0
0
0
0
0
0
0
0
0
0
0
0
0
0
0
0
0
0
0
0
0
0
0
0
0
0
0
0
0
0
0
0
0
0
0
0
0
0
0
0
0
0
0
0
0
0
0
0
0
0
0
0
0
0
0
0
0
0
0
0
0
0
0
0
0
0
0
0
0
0
0
0
0
0
0
0
0
0
0
0
0
0
0
0
0
0
0
0
0
0
0
0
0
0
0
0
0
0
0
0
0
0
0
0
0
0
0
0
0
0
0
0
0
0
0
0
0
0
0
0
0
0
0
0
0
0
0
0
0
0
0
0
0
0
0
0
0
0
0
0
0
0
0
0
0
0
0
0
0
0
0
0
0
0
0
0
0
0
0
0
0
0
0
0
0
0
0
0
0
0
0
0
0
0
0
0
0
0
0
0
0
0
0
0
0
0
0
0
0
0
0
0
0
0
0
0
0
0
0
0
0

POINT_DATA	1515
SCALARS model double 1
LOOKUP_TABLE table0
0.668583
-3.16884
-5.46572
-2.98872
-0.606253
0.955914
-0.67104
-6.39243
-2.16307
0.562868
0.473732
6.72328
-8.08471
-1.67558
1.75589
1.32132
-15.54
-18.0779
-3.89025
1.86171
0.160954
2.90159
-14.209
-6.28686
0.158937
-0.00894036
-2.72196
-11.366
-8.25255
-3.18003
0.0661177
0.758177
-8.59401
-8.75201
-6.36808
0.49405
-1.6491
-6.3196
-7.15868
-7.70369
0.195946
2.45125
0.336193
-3.97943
-8.20501
-0.134379
1.31682
2.60593
-2.76191
-8.59548
0.675302
7.08719
-1.79187
1.14679
2.30876
2.26545
-15.8497
-1.62769
3.99729
4.42898
2.6871
-6.99538
6.06176
9.21299
7.48597
1.73902
8.20584
2.71893
30.5355
8.95813
-29.6474
-4.22811
-13.8465
1.0448
12.5506
14.2
10.5171
-0.088668
0.611043
6.46907
13.2963
11.4291
-0.65089
-3.08047
-3.85433
6.22685
8.84581
-0.115463
2.77065
-4.14783
0.543407
4.27436
0.307664
-4.95357
-6.93718
-3.19789
-0.658123
0.512863
-4.1682
-5.22095
-5.80358
-6.63684
-0.010806
3.59734
-2.59254
-7.37205
-10.6221
1.42508
-11.7208
-0.240586
2.37648
2.85043
2.76426
-6.51343
6.71522
6.33688
4.98844
7.55315
0.7715
23.1088
-4.3808
20.6969
24.4789
27.49
42.8977
33.0324
26.3479
13.7374
8.22611