# vtk DataFile Version 3.0
Gravity inversion using rectangular prisms
ASCII
DATASET UNSTRUCTURED_GRID

POINTS	1487	double
100	100	100
100	100	300
100	100	500
100	100	700
100	100	900
100	300	100
100	300	300
100	300	500
100	300	700
100	300	900
100	500	100
100	500	300
100	500	500
100	500	700
100	500	900
100	700	100
100	700	300
100	700	500
100	700	700
100	700	900
100	900	100
100	900	300
100	900	500
100	900	700
100	900	900
100	1100	100
100	1100	300
100	1100	500
100	1100	700
100	1100	900
100	1300	100
100	1300	300
100	1300	500
100	1300	700
100	1300	900
100	1500	100
100	1500	300
100	1500	500
100	1500	700
100	1500	900
100	1700	100
100	1700	300
100	1700	500
100	1700	700
100	1700	900
100	1900	100
100	1900	300
100	1900	500
100	1900	700
100	1900	900
300	100	100
300	100	300
300	100	500
300	100	700
300	100	900
300	300	100
300	300	300
300	300	500
300	300	700
300	300	900
300	500	100
300	500	300
300	500	500
300	500	700
300	500	900
300	700	100
300	700	300
300	700	500
300	700	700
300	700	900
300	900	100
300	900	300
300	900	500
300	900	700
300	900	900
300	1100	100
300	1100	300
300	1100	500
300	1100	700
300	1100	900
300	1300	100
300	1300	300
300	1300	500
300	1300	700
300	1300	900
300	1500	100
300	1500	300
300	1500	500
300	1500	700
300	1500	900
300	1700	100
300	1700	300
300	1700	500
300	1700	700
300	1700	900
300	1900	100
300	1900	300
300	1900	500
300	1900	700
300	1900	900
500	100	100
500	100	300
500	100	500
500	100	700
500	100	900
500	300	100
500	300	300
500	300	500
500	300	700
500	300	900
500	500	100
450	450	250
450	450	350
450	550	250
450	550	350
550	450	250
550	450	350
550	550	250
550	550	350
500	500	500
500	500	700
500	500	900
450	650	50
450	650	150
450	750	50
450	750	150
550	650	50
550	650	150
550	750	50
550	750	150
450	650	250
450	650	350
450	750	250
450	750	350
525	625	225
525	625	275
525	675	225
525	675	275
575	625	225
575	625	275
575	675	225
575	675	275
550	650	350
525	725	225
525	725	275
525	775	225
525	775	275
575	725	225
575	725	275
575	775	225
575	775	275
550	750	350
500	700	500
500	700	700
500	700	900
500	900	100
450	850	250
450	850	350
450	950	250
450	950	350
550	850	250
550	850	350
550	950	250
550	950	350
500	900	500
500	900	700
500	900	900
500	1100	100
500	1100	300
500	1100	500
500	1100	700
500	1100	900
500	1300	100
500	1300	300
500	1300	500
500	1300	700
500	1300	900
500	1500	100
500	1500	300
500	1500	500
500	1500	700
500	1500	900
500	1700	100
500	1700	300
500	1700	500
500	1700	700
500	1700	900
500	1900	100
500	1900	300
500	1900	500
500	1900	700
500	1900	900
700	100	100
700	100	300
700	100	500
700	100	700
700	100	900
700	300	100
700	300	300
700	300	500
700	300	700
700	300	900
650	450	50
650	450	150
650	550	50
650	550	150
750	450	50
750	450	150
750	550	50
750	550	150
650	450	250
650	450	350
625	525	225
625	525	275
625	575	225
625	575	275
675	525	225
675	525	275
675	575	225
675	575	275
650	550	350
750	450	250
750	450	350
750	550	250
750	550	350
700	500	500
700	500	700
700	500	900
650	650	50
625	625	125
625	625	175
625	675	125
625	675	175
675	625	125
675	625	175
675	675	125
675	675	175
650	750	50
625	725	125
625	725	175
625	775	125
625	775	175
675	725	125
675	725	175
675	775	125
675	775	175
725	625	25
725	625	75
725	675	25
725	675	75
775	625	25
775	625	75
775	675	25
775	675	75
725	625	125
725	625	175
725	675	125
725	675	175
775	625	125
775	625	175
775	675	125
775	675	175
750	750	50
725	725	125
725	725	175
725	775	125
725	775	175
775	725	125
775	725	175
775	775	125
775	775	175
625	625	225
625	625	275
625	675	225
625	675	275
675	625	225
675	625	275
675	675	225
675	675	275
625	625	325
625	625	375
625	675	325
625	675	375
675	625	325
675	625	375
675	675	325
675	675	375
625	725	225
625	725	275
625	775	225
625	775	275
675	725	225
675	725	275
675	775	225
675	775	275
625	725	325
625	725	375
625	775	325
625	775	375
675	725	325
675	725	375
675	775	325
675	775	375
750	650	250
750	650	350
750	750	250
750	750	350
650	650	450
650	650	550
650	750	450
650	750	550
750	650	450
750	650	550
750	750	450
750	750	550
700	700	700
700	700	900
650	850	50
650	850	150
650	950	50
650	950	150
750	850	50
750	850	150
750	950	50
750	950	150
625	825	225
625	825	275
625	875	225
625	875	275
675	825	225
675	825	275
675	875	225
675	875	275
650	850	350
650	950	250
650	950	350
725	825	225
725	825	275
725	875	225
725	875	275
775	825	225
775	825	275
775	875	225
775	875	275
750	850	350
750	950	250
750	950	350
700	900	500
700	900	700
700	900	900
650	1050	50
650	1050	150
650	1150	50
650	1150	150
750	1050	50
750	1050	150
750	1150	50
750	1150	150
650	1050	250
650	1050	350
650	1150	250
650	1150	350
725	1025	225
725	1025	275
725	1075	225
725	1075	275
775	1025	225
775	1025	275
775	1075	225
775	1075	275
750	1050	350
725	1125	225
725	1125	275
725	1175	225
725	1175	275
775	1125	225
775	1125	275
775	1175	225
775	1175	275
750	1150	350
700	1100	500
700	1100	700
700	1100	900
700	1300	100
650	1250	250
650	1250	350
650	1350	250
650	1350	350
750	1250	250
750	1250	350
750	1350	250
750	1350	350
700	1300	500
700	1300	700
700	1300	900
700	1500	100
650	1450	250
650	1450	350
650	1550	250
650	1550	350
750	1450	250
750	1450	350
750	1550	250
750	1550	350
700	1500	500
700	1500	700
700	1500	900
700	1700	100
700	1700	300
700	1700	500
700	1700	700
700	1700	900
700	1900	100
700	1900	300
700	1900	500
700	1900	700
700	1900	900
900	100	100
900	100	300
900	100	500
900	100	700
900	100	900
900	300	100
900	300	300
900	300	500
900	300	700
900	300	900
850	450	50
850	450	150
850	550	50
850	550	150
950	450	50
950	450	150
950	550	50
950	550	150
850	450	250
850	450	350
850	550	250
850	550	350
950	450	250
950	450	350
950	550	250
950	550	350
900	500	500
900	500	700
900	500	900
850	650	50
825	625	125
825	625	175
825	675	125
825	675	175
875	625	125
875	625	175
875	675	125
875	675	175
850	750	50
850	750	150
950	650	50
950	650	150
950	750	50
950	750	150
850	650	250
850	650	350
850	750	250
850	750	350
925	625	225
925	625	275
925	675	225
925	675	275
975	625	225
975	625	275
975	675	225
975	675	275
925	625	325
925	625	375
925	675	325
925	675	375
975	625	325
975	625	375
975	675	325
975	675	375
925	725	225
925	725	275
925	775	225
925	775	275
975	725	225
975	725	275
975	775	225
975	775	275
925	725	325
925	725	375
925	775	325
925	775	375
975	725	325
975	725	375
975	775	325
975	775	375
850	650	450
850	650	550
850	750	450
850	750	550
950	650	450
950	650	550
950	750	450
950	750	550
900	700	700
900	700	900
850	850	50
850	850	150
850	950	50
850	950	150
950	850	50
950	850	150
950	950	50
950	950	150
850	850	250
850	850	350
850	950	250
850	950	350
950	850	250
950	850	350
950	950	250
950	950	350
850	850	450
850	850	550
850	950	450
850	950	550
950	850	450
950	850	550
950	950	450
950	950	550
900	900	700
900	900	900
900	1100	100
850	1050	250
850	1050	350
850	1150	250
850	1150	350
950	1050	250
950	1050	350
950	1150	250
950	1150	350
900	1100	500
900	1100	700
900	1100	900
850	1250	50
850	1250	150
850	1350	50
850	1350	150
950	1250	50
950	1250	150
950	1350	50
950	1350	150
825	1225	225
825	1225	275
825	1275	225
825	1275	275
875	1225	225
875	1225	275
875	1275	225
875	1275	275
850	1250	350
825	1325	225
825	1325	275
825	1375	225
825	1375	275
875	1325	225
875	1325	275
875	1375	225
875	1375	275
850	1350	350
925	1225	225
925	1225	275
925	1275	225
925	1275	275
975	1225	225
975	1225	275
975	1275	225
975	1275	275
950	1250	350
925	1325	225
925	1325	275
925	1375	225
925	1375	275
975	1325	225
975	1325	275
975	1375	225
975	1375	275
950	1350	350
850	1250	450
850	1250	550
850	1350	450
850	1350	550
950	1250	450
950	1250	550
950	1350	450
950	1350	550
900	1300	700
900	1300	900
850	1450	50
850	1450	150
850	1550	50
850	1550	150
950	1450	50
950	1450	150
950	1550	50
950	1550	150
825	1425	225
825	1425	275
825	1475	225
825	1475	275
875	1425	225
875	1425	275
875	1475	225
875	1475	275
850	1450	350
825	1525	225
825	1525	275
825	1575	225
825	1575	275
875	1525	225
875	1525	275
875	1575	225
875	1575	275
850	1550	350
925	1425	225
925	1425	275
925	1475	225
925	1475	275
975	1425	225
975	1425	275
975	1475	225
975	1475	275
950	1450	350
925	1525	225
925	1525	275
925	1575	225
925	1575	275
975	1525	225
975	1525	275
975	1575	225
975	1575	275
950	1550	350
850	1450	450
850	1450	550
850	1550	450
850	1550	550
950	1450	450
950	1450	550
950	1550	450
950	1550	550
900	1500	700
900	1500	900
900	1700	100
850	1650	250
850	1650	350
850	1750	250
850	1750	350
950	1650	250
950	1650	350
950	1750	250
950	1750	350
900	1700	500
900	1700	700
900	1700	900
900	1900	100
900	1900	300
900	1900	500
900	1900	700
900	1900	900
1100	100	100
1100	100	300
1100	100	500
1100	100	700
1100	100	900
1100	300	100
1100	300	300
1100	300	500
1100	300	700
1100	300	900
1100	500	100
1050	450	250
1050	450	350
1050	550	250
1050	550	350
1150	450	250
1150	450	350
1150	550	250
1150	550	350
1100	500	500
1100	500	700
1100	500	900
1050	650	50
1050	650	150
1050	750	50
1050	750	150
1150	650	50
1150	650	150
1150	750	50
1150	750	150
1025	625	225
1025	625	275
1025	675	225
1025	675	275
1075	625	225
1075	625	275
1075	675	225
1075	675	275
1050	650	350
1025	725	225
1025	725	275
1025	775	225
1025	775	275
1075	725	225
1075	725	275
1075	775	225
1075	775	275
1050	750	350
1125	625	225
1125	625	275
1125	675	225
1125	675	275
1175	625	225
1175	625	275
1175	675	225
1175	675	275
1150	650	350
1150	750	250
1150	750	350
1100	700	500
1100	700	700
1100	700	900
1100	900	100
1050	850	250
1050	850	350
1050	950	250
1050	950	350
1150	850	250
1150	850	350
1150	950	250
1150	950	350
1100	900	500
1100	900	700
1100	900	900
1050	1050	50
1050	1050	150
1050	1150	50
1050	1150	150
1150	1050	50
1150	1050	150
1150	1150	50
1150	1150	150
1050	1050	250
1050	1050	350
1050	1150	250
1050	1150	350
1150	1050	250
1150	1050	350
1150	1150	250
1150	1150	350
1050	1050	450
1050	1050	550
1050	1150	450
1050	1150	550
1150	1050	450
1150	1050	550
1150	1150	450
1150	1150	550
1100	1100	700
1100	1100	900
1050	1250	50
1025	1225	125
1025	1225	175
1025	1275	125
1025	1275	175
1075	1225	125
1075	1225	175
1075	1275	125
1075	1275	175
1050	1350	50
1025	1325	125
1025	1325	175
1025	1375	125
1025	1375	175
1075	1325	125
1075	1325	175
1075	1375	125
1075	1375	175
1150	1250	50
1150	1250	150
[...]
CELL_DATA	1487
SCALARS model double 1
LOOKUP_TABLE table0
-0.0372193
3.50064
-13.3607
-10.0763
-6.24299
0.219363
0.416797
-12.1137
-7.2676
-3.80315
-0.0329465
2.94
-10.4152
-4.00611
-0.997742
0.105656
-1.19662
-10.6893
-2.83365
0.855329
0.404662
-6.99081
-17.6658
-6.03915
0.250297
-0.808639
-0.9984
-11.1315
-6.61419
-1.58467
-0.542977
0.187111
-3.74211
-3.66358
-2.37045
0.479092
-12.3967
-5.0262
-1.01856
-2.20193
-0.180114
4.90677
4.06088
-0.246327
-5.18617
0.136766
-2.66392
-5.05036
-7.90224
-11.847
-0.409433
3.09001
-3.4239
-1.41493
-0.64398
-0.0909634
1.0769
1.0728
2.81512
2.29651
0.967988
-17.6819
6.43505
8.81424
6.09061
-0.105609
-0.869744
13.7143
14.4338
9.74849
0.360175
-4.58335
4.72468
13.1969
11.0793
-0.903233
3.77595
-1.70961
7.06644
9.23212
-1.53045
0.0834075
-1.02074
3.12811
6.01398
-0.775118
3.30217
-2.29594
0.390704
2.11631
-0.0195375
-6.86836
-4.79593
-4.29049
-5.27938
-0.0781111
-1.35402
-5.89353
-9.4509
-12.378
-0.455511
-2.99589
0.500716
1.11478
0.989791
-0.836384
-4.15134
7.93352
5.74806
3.63621
-0.0730413
10.4008
31.6333
27.7738
37.2594
31.7683
37.1154
80.8689
50.9162
29.1318
13.8103
7.32665
-2.49292
13.6339
5.12238
3.55205
13.1534
60.9117
12.5141
42.6061
47.267
40.3851
19.4116
36.4429
82.9606
81.6649
80.0554
95.651
115.609
132.64
116.083
129.024
109.392
63.2605
81.0269
45.2608
64.7081
96.8651
111.757
78.8258
100.812
111.823
61.9048
23.9783
11.4517
5.11759
-17.6015
2.43478
-57.9077
-41.5634
36.1449
61.8904
0.078248
9.61391
49.685
27.2719
14.1105
0.862447
-23.462
8.95864
19.6453
14.2427
-0.954256
-11.4789
-1.1563
12.4659
13.2319
-1.02831
-8.13558
-2.17973
7.06245
10.11
-0.926405
-2.23561
-5.19346
-2.23219
0.106291
-0.973529
5.22705
-1.29732
-7.0996
-8.96391
-0.618491
0.330274
1.02368
1.11971
0.924945
-1.89781
14.1816
7.87758
4.43913
2.4136
-3.57194
37.6244
11.0832
94.6186
-1.69039
38.5692
14.9789
94.3724
73.6405
71.3398
110.754
100.513
129.377
115.463
126.995
112.881
149.877
126.086
110.158
108.599
84.5583
164.084
114.262
26.7112
10.2185
4.29991
26.2493
75.8723
108.412
72.6502
105.29
81.3262
125.859
82.2325
127.671
24.9535
63.8917
98.2773
58.1527
88.2372
81.8707
124.332
80.5539
116.692
13.9388
43.1177
17.765
55.2153
15.8574
49.7661
18.3379
58.6284
75.7179
146.27
88.6083
144.395
82.972
136.331
103.177
148.431
34.4862
93.5548
141.414
91.5249
131.808
96.4125
139.487
85.3366
133.664
127.656
136.674
127.79
154.027
153.634
168.345
153.542
190.652
120.596
111.978
127.829
135.544
150.233
159.539
150.393
173.149
126.002
144.918
108.145
128.006
156.892
178.401
145.441
166.551
133.749
139.866
134.864
140.383
155.909
165.231
159.113
158.126
270.703
240.364
236.285
239.214
80.2139
60.0069
90.9287
66.1152
81.2088
62.2785
89.9496
66.8114
18.4098
6.35623
22.4507
68.1139
1.43118
27.6532
22.0139
66.0929
2.86078
16.3777
91.6344
108.082
70.832
84.3914
125.128
143.08
95.9381
113.41
132.289
41.9597
54.6327
152.159
183.161
103.324
132.218
147.226
190.673
103.588
129.845
149.673
45.7654
70.5076
77.9741
23.5751
8.1547
-1.34927
5.50302
-0.390654
-0.430115
-2.98471
-3.29607
-1.73239
-13.2913
2.19111
-12.4591
-23.1551
-36.9026
13.5292
16.4486
5.74494
3.88958
17.8032
23.1468
15.6122
8.23991
-12.7253
-5.11556
-9.71432
-20.4676
-18.5139
3.18969
-5.03652
-14.8273
-11.4273
-35.5094
38.3534
23.4864
10.7881
-1.9619
-27.9025
-27.9939
-20.622
-17.2002
-10.3004
-20.6099
17.5171
14.114
29.0674
26.8542
16.2297
-2.12512
-25.9657
-16.2007
-32.322
-18.8058
21.6509
23.42
-0.00532813
5.30515
22.0322
25.8036
19.9659
-2.07647
-3.37684
-5.18151
4.59013
9.64548
-0.630465
-9.75623
-15.1997
-9.4242
-5.0906
-0.553505
0.462468
0.745487
0.712629
0.474741
-1.48683
9.07079
3.75648
1.57337
0.265066
-1.94781
18.7673
8.17245
63.7442
-2.78574
23.138
-5.76365
55.5198
76.2563
43.9668
114.16
66.3799
75.641
43.9638
93.9049
57.7443
9.45164
1.78885
-0.932699
23.0018
82.9308
119.279
86.4058
131.5
48.4405
126.084
82.0938
134.911
17.2534
86.985
3.78847
79.4786
-6.72945
76.4415
217.063
175.266
205.718
178.741
120.452
153.742
137.743
166.15
74.0995
79.1096
97.5067
103.4
151.734
123.277
177.861
150.77
94.1511
85.265
114.221
103.662
141.712
162.657
140.978
154.078
107.653
116.226
109.207
116.812
174.841
151.737
154.731
139.562
113.698
100.295
105.169
92.9982
36.8362
22.5684
43.214
25.9328
28.3364
20.5841
30.2855
21.6481
1.15174
-3.18058
6.59621
54.5907
-4.7401
6.59311
-10.6357
69.9083
-14.0435
21.9411
135.101
127.98
57.5883
89.2047
116.514
106.272
69.8342
92.3105
47.3282
34.2323
41.8005
33.3991
37.2096
29.8104
37.1834
30.4996
1.65605
-4.37185
-7.61261
24.921
41.4578
10.7703
26.8655
41.6642
46.9202
37.7366
46.2864
41.888
11.3197
0.347543
-8.31766
-2.84692
3.82099
31.3873
6.7451
33.0755
13.2328
69.2413
12.4884
7.20917
7.70039
15.8746
25.7939
35.5985
41.681
61.9232
36.7415
27.9311
44.0822
44.6425
59.8882
55.9563
72.6596
67.5755
76.1092
75.6015
47.9542
78.7111
58.5567
92.6038
61.9038
82.6129
94.1479
101.398
87.3497
74.9604
99.8759
94.3256
118.136
109.043
134.705
117.037
152.118
147.203
73.7359
81.9739
87.951
85.2207
87.6108
86.7448
107.64
92.9707
34.63
13.0902
3.53214
38.5425
-2.8361
10.0885
19.3239
68.9095
-0.820826
33.9673
49.2767
58.9355
36.6642
39.216
72.9667
79.0691
55.7536
61.561
78.4598
28.4103
30.9039
10.0573
19.2997
44.1703
49.0826
26.823
37.1376
60.7211
90.5952
109.436
63.897
77.7796
105.771
131.319
83.7977
107.357
147.87
60.8392
67.9275
45.6351
56.5918
74.7225
86.3168
59.0277
77.043
100.19
95.331
86.5677
65.4167
72.4432
139.534
114.289
109.802
104.126
51.5452
26.2354
-3.00634
-0.0883738
19.0189
2.5255
10.1852
28.7365
43.95
-1.44908
2.9601
12.1299
20.1682
20.4928
0.0701377
-9.55563
-17.047
-6.30636
0.852429
-0.0145759
0.700549
0.730892
0.482426
0.108486
0.00877673
0.0243866
-0.5459
-1.31646
-1.92565
-1.2648
-21.0888
-22.2126
-21.2543
-22.8
-23.7562
-21.523
-39.7691
-25.8994
-10.5686
-7.72924
-6.5845
-1.38276
6.8776
-6.964
29.2812
-1.81111
-77.6417
-9.73382
-27.0347
29.7201
31.9703
44.5066
42.4777
-47.689
-84.1867
-27.5233
-67.1523
-64.9696
55.101
56.0691
47.452
50.2422
-3.57583
-31.2393
-2.99287
-20.1954
-67.3762
-84.0555
-122.777
-105.461
-150.323
-140.875
-188.219
-164.913
-214.749
-101.686
-138.721
-103.733
-35.7461
-20.21
-13.7983
-10.664
-23.0309
-24.201
0.919775
-4.84209
-45.7659
-36.4406
13.9574
-8.55964
-36.3207
-25.988
-18.1989
-9.29436
-7.37392
-3.50249
-7.00541
-5.97438
-15.0144
0.733245
-14.3516
52.2973
56.5923
44.7454
58.3756
67.8478
60.0294
41.1973
54.9865
14.4564
8.2669
20.8363
15.7206
13.5487
7.67345
17.3116
13.8251
-8.55437
-11.6101
0.515701
1.51399
31.5385
32.5349
64.4516
-9.81119
36.595
27.653
58.9828
32.6769
63.9646
95.7123
75.5618
101.52
63.3377
106.283
83.1577
116.357
8.10988
53.8033
25.9406
69.6603
100.901
80.7868
115.11
83.1056
111.18
85.7957
118.767
126.39
155.688
125.886
183.784
131.78
181.58
146.568
227.167
155.36
208.475
197.759
136.406
161.658
189.291
197.287
98.9499
88.1533
130.689
104.389
96.1233
87.9827
122.276
101.514
25.9554
5.84849
20.8559
82.4649
4.03681
37.2667
30.1938
84.6847
14.4506
41.8477
126.216
169.537
104.081
140.277
150.702
197.243
122.939
164.173
193.96
83.5542
97.6204
72.826
92.4705
88.5176
109.435
79.9224
103.116
126.525
152.485
195.137
130.384
170.096
163.8
189.598
142.469
180.529
200.962
92.0833
138.504
171.558
144.761
137.316
127.508
171.637
149.038
147.04
134.575
71.8842
54.3749
72.9568
54.546
70.9365
55.4042
72.0835
55.4054
24.3988
-0.485655
38.0483
55.4159
-11.6636
-11.2723
37.4261
56.765
-16.3117
-17.7968
51.6658
51.5072
1.67869
8.78909
53.1249
52.3244
5.39929
14.9847
33.078
25.1787
0.660146
-31.4685
-10.7664
0.557129
6.20898
0.00804786
0.8846
0.94057
0.481639
-0.0213274
-0.0383905
-5.86325
-3.75681
-3.6524
-3.67601
1.35325
-26.6089
-7.0726
-87.1042
-5.54836
-26.3283
-15.2236
-63.0887
-69.9941
-61.2903
-128.379
-84.7937
-69.075
-57.3404
-123.218
-82.4067
-25.6493
-15.3943
-11.071
-3.62146
-27.3111
-9.37018
-35.7307
-3.76146
-30.6651
-12.1561
-44.9058
-49.8826
-103.927
-63.0487
-123.563
-66.3226
-115.678
-78.8218
-134.305
-11.155
-41.0366
-12.2534
-46.5539
-15.7853
-50.5925
-15.9721
-57.6143
-77.1042
-126.211
-110.398
-125.521
-90.665
-145.673
-125.178
-140.685
-10.5023
-40.756
-15.4239
-54.673
-15.7488
-50.4215
-21.1164
-66.1168
-76.4502
-118.837
-95.526
-139.532
-86.4089
-123.025
-109.389
-139.568
-15.2949
-54.0304
-15.0454
-57.4505
-17.2876
-60.1247
-14.2633
-52.1663
-96.9458
-143.04
-122.599
-128.055
-104.277
-130.342
-97.5938
-102.854
-285.752
-218.332
-171.759
-259.601
-216.635
-248.4
-207.32
-288.755
-252.99
-262.178
-224.908
-277.179
-225.403
-268.204
-226.687
-91.2141
-77.1695
-96.7638
-81.1462
-89.986
-75.0978
-95.709
-79.7806
-35.3711
-21.2941
-19.4866
-26.3683
-10.6236
-15.9793
-31.9529
-23.523
-10.6945
-14.3736
-81.3216
-87.0949
-50.4574
-63.4722
-105.03
-95.3445
-73.8628
-73.7202
-68.4444
-41.4543
-26.1139
-2.19469
-2.78865
1.32975
-14.1087
1.06595
-8.30897
-3.29627
-0.535708
3.45612
-18.0196
-20.5599
-17.8526
6.27198
57.287
23.862
126.541
5.60091
74.3844
22.208
117.882
118.423
133.483
191.074
173.29
146.324
139.658
189.983
173.891
168.176
181.817
160.683
141.663
144.953
152.293
173.719
64.8208
56.761
89.4479
69.7129
62.4283
52.9288
81.3634
61.884
12.9802
-0.179638
30.7779
96.239
131.318
70.0745
106.271
101.703
126.971
77.062
107.675
7.02607
35.0427
28.425
98.5028
122.569
69.3005
95.1817
78.8774
106.299
61.7894
87.45
7.62449
35.5997
60.41
20.59
43.715
36.8798
63.6017
24.206
47.2123
179.191
208.459
97.8964
153.804
163.507
179.677
131.604
160.592
133.498
154.737
111.474
140.928
197.508
81.2297
146.545
155.561
132.984
143.287
127.21
141.492
121.085
127.397
113.709
42.507
17.3982
6.17016
20.8429
-4.94159
-11.8211
2.31892
12.1612
1.32166
-12.6187
35.8815
50.1342
-12.2866
8.35847
24.7597
43.1854
-11.8527
-1.05365
52.1067
44.8577
8.28373
24.1816
45.1477
40.1327
12.4959
25.9344
31.2641
21.1957
0.182655
1.91098
-0.897762
2.86895
6.54675
-0.386108
4.6563
1.99782
0.905877
0.369788
-0.549495
-2.99832
-4.85548
-4.83738
-4.34789
-2.72282
-24.3733
-12.4055
-52.7529
-0.056354
-13.9815
-6.27724
-36.3302
-54.0443
-45.8375
-102.132
-69.295
5.06713
-25.6436
-48.2667
-49.026
-29.7383
-18.1549
-12.5509
-9.41571
-39.9982
-20.0753
-61.2011
-8.32522
-34.274
-12.2383
-41.9265
-74.8578
-114.654
-98.5676
-132.039
-58.2657
-95.5529
-71.5922
-110.507
-18.7933
-58.3053
-15.8984
-46.6786
-11.9941
-40.7116
-12.461
-37.5998
-94.8261
-116.094
-58.7094
-86.4555
-69.3417
-101.787
-52.7064
-85.0354
-7.67682
-51.545
-7.61988
-57.9075
-211.86
-169.706
-215.228
-172.609
-134.864
-137.309
-137.096
-137.149
-64.9002
-34.1876
-21.4381
-19.4369
-21.5367
-7.66653
-2.87011
-4.69891
-36.2784
-1.82127
-16.2245
-111.713
-88.5752
-70.6496
-68.6609
-56.5702
-62.6987
-19.7517
-50.2783
-49.1045
-32.8617
-22.8762
-0.808379
3.06832
2.20398
17.8404
7.10342
38.1705
11.1088
11.9354
-0.405617
-13.54
-15.7117
-14.521
1.61911
62.4435
14.6021
81.8347
2.96454
18.129
3.61587
43.1332
120.639
98.2258
136.025
113.476
119.149
118.784
118.243
104.76
102.304
100.936
125.551
63.102
68.9352
100.976
79.7404
26.6236
5.55643
-1.45037
16.9726
62.3365
13.7032
47.2274
12.5145
42.8677
-4.15759
29.8677
110.292
131.146
97.1763
114.238
84.0869
96.5494
71.3454
92.4045
140.593
80.3535
94.4945
67.834
81.9633
70.2912
79.3069
59.7441
70.4564
93.1329
71.4963
93.5787
57.5546
63.6487
57.748
70.2119
35.5395
40.3596
83.1471
53.1697
54.7002
44.3633
53.9576
36.5109
42.6863
26.7788
38.3398
42.3253
79.2999
61.4986
70.2989
58.8881
47.9728
44.381
38.4402
41.5225
22.8739
10.5043
2.9032
25.3683
15.6112
-23.137
-22.5718
9.99263
-3.9062
-31.2939
-21.3502
10.9517
17.1209
13.1446
1.81313
-18.8023
-12.7426
-3.37902
2.11069
0.070339
-2.07243
2.81332
2.53456
2.2531
0.0615829
6.56955
-2.81982
-3.17386
-2.48921
0.630299
-14.2186
-17.1755
-12.3244
-8.79683
0.132551
-21.5861
-19.7137
-7.15977
-15.0601
-21.6776
-17.1487
-1.52826
-12.5883
-20.8879
-16.8078
-12.8495
0.0897408
-2.00573
-8.26543
-11.3647
-10.9866
-0.31888
5.55932
0.195283
-3.63209
-5.3023
0.134251
11.504
7.32907
3.66539
1.34891
1.03897
9.60297
4.73503
4.69261
6.28518
3.89796
0.535088
-3.18725
3.17796
13.2989
9.47443
6.9827
1.30006
-12.4391
-6.16135
4.62452
6.91254
0.953256
3.85279
-15.6412
-8.86808
-2.28305
0.0245888
-1.57281
9.74519
8.87509
7.5787
0.318627
-1.37769
5.41885
4.37644
3.67898
0.701287
3.68422
2.99537
0.649049
0.183199
0.0449701
6.94753
4.22594
0.86256
-0.70422
0.0342213
3.31578
4.69073
2.83019
0.847184
-0.02532
0.452974
3.19714
3.74059
2.93954
0.181129
-6.07437
1.43691
4.28576
4.95738
-0.258806
-3.13837
0.785679
4.96512
6.53405
-0.56558
8.55205
-3.35439
0.876131
4.52731
0.02545
-2.19251
-11.5535
-8.61066
-3.61623
SCALARS m0 double 1
LOOKUP_TABLE table1
0
0
0
0
0
0
0
0
0
0
0
0
0
0
0
0
0
0
0
0
0
0
0
0
0
0
0
0
0
0
0
0
0
0
0
0
0
0
0
0
0
0
0
0
0
0
0
0
0
0
0
0
0
0
0
0
0
0
0
0
0
0
0
0
0
0
0
0
0
0
0
0
0
0
0
0
0
0
0
0
0
0
0
0
0
0
0
0
0
0
0
0
0
0
0
0
0
0
0
0
0
0
0
0
0
0
0
0
0
0
0
0
0
0
0
0
0
0
0
0
0
0
0
0
0
0
0
0
0
0
0
0
0
0
0
0
0
0
0
0
0
0
0
0
0
0
0
0
0
0
0
0
0
0
0
0
0
0
0
0
0
0
0
0
0
0
0
0
0
0
0
0
0
0
0
0
0
0
0
0
0
0
0
0
0
0
0
0
0
0
0
0
0
0
0
0
0
0
0
0
0
0
0
0
0
0
0
0
0
0
0
0
0
0
0
0
0
0
0
0
0
0
0
0
0
0
0
0
0
0
0
0
0
0
0
0
0
0
0
0
0
0
0
0
0
0
0
0
0
0
0
0
0
0
0
0
0
0
0
0
0
0
0
0
0
0
0
0
0
0
0
0
0
0
0
0
0
0
0
0
0
0
0
0
0
0
0
0
0
0
0
0
0
0
0
0
0
0
0
0
0
0
0
0
0
0
0
0
0
0
0
0
0
0
0
0
0
0
0
0
0
0
0
0
0
0
0
0
0
0
0
0
0
0
0
0
0
0
0
0
0
0
0
0
0
0
0
0
0
0
0
0
0
0
0
0
0
0
0
0
0
0
0
0
0
0
0
0
0
0
0
0
0
0
0
0
0
0
0
0
0
0
0
0
0
0
0
0
0
0
0
0
0
0
0
0
0
0
0
0
0
0
0
0
0
0
0
0
0
0
0
0
0
0
0
0
0
0
0
0
0
0
0
0
0
0
0
0
0
0
0
0
0
0
0
0
0
0
0
0
0
0
0
0
0
0
0
0
0
0
0
0
0
0
0
0
0
0
0
0
0
0
0
0
0
0
0
0
0
0
0
0
0
0
0
0
0
0
0
0
0
0
0
0
0
0
0
0
0
0
0
0
0
0
0
0
0
0
0
0
0
0
0
0
0
0
0
0
0
0
0
0
0
0
0
0
0
0
0
0
0
0
0
0
0
0
0
0
0
0
0
0
0
0
0
0
0
0
0
0
0
0
0
0
0
0
0
0
0
0
0
0
0
0
0
0
0
0
0
0
0
0
0
0
0
0
0
0
0
0
0
0
0
0
0
0
0
0
0
0
0
0
0
0
0
0
0
0
0
0
0
0
0
0
0
0
0
0
0
0
0
0
0
0
0
0
0
0
0
0
0
0
0
0
0
0
0
0
0
0
0
0
0
0
0
0
0
0
0
0
0
0
0
0
0
0
0
0
0
0
0
0
0
0
0
0
0
0
0
0
0
0
0
0
0
0
0
0
0
0
0
0
0
0
0
0
0
0
0
0
0
0
0
0
0
0
0
0
0
0
0
0
0
0
0
0
0
0
0
0
0
0
0
0
0
0
0
0
0
0
0
0
0
0
0
0
0
0
0
0
0
0
0
0
0
0
0
0
0
0
0
0
0
0
0
0
0
0
0
0
0
0
0
0
0
0
0
0
0
0
0
0
0
0
0
0
0
0
0
0
0
0
0
0
0
0
0
0
0
0
0
0
0
0
0
0
0
0
0
0
0
0
0
0
0
0
0
0
0
0
0
0
0
0
0
0
0
0
0
0
0
0
0
0
0
0
0
0
0
0
0
0
0
0
0
0
0
0
0
0
0
0
0
0
0
0
0
0
0
0
0
0
0
0
0
0
0
0
0
0
0
0
0
0
0
0
0
0
0
0
0
0
0
0
0
0
0
0
0
0
0
0
0
0
0
0
0
0
0
0
0
0
0
0
0
0
0
0
0
0
0
0
0
0
0
0
0
0
0
0
0
0
0
0
0
0
0
0
0
0
0
0
0
0
0
0
0
0
0
0
0
0
0
0
0
0
0
0
0
0
0
0
0
0
0
0
0
0
0
0
0
0
0
0
0
0
0
0
0
0
0
0
0
0
0
0
0
0
0
0
0
0
0
0
0
0
0
0
0
0
0
0
0
0
0
0
0
0
0
0
0
0
0
0
0
0
0
0
0
0
0
0
0
0
0
0
0
0
0
0
0
0
0
0
0
0
0
0
0
0
0
0
0
0
0
0
0
0
0
0
0
0
0
0
0
0
0
0
0
0
0
0
0
0
0
0
0
0
0
0
0
0
0
0
0
0
0
0
0
0
0
0
0
0
0
0
0
0
0
0
0
0
0
0
0
0
0
0
0
0
0
0
0
0
0
0
0
0
0
0
0
0
0
0
0
0
0
0
0
0
0
0
0
0
0
0
0
0
0
0
0
0
0
0
0
0
0
0
0
0
0
0
0
0
0
0
0
0
0
0
0
0
0
0
0
0
0
0
0
0
0
0
0
0
0
0
0
0
0
0
0
0
0
0
0
0
0
0
0
0
0
0
0
0
0
0
0
0
0
0
0
0
0
0
0
0
0
0
0
0
0
0
0
0
0
0
0
0
0
0
0
0
0
0
0
0
0
0
0
0
0
0
0
0
0
0
0
0
0
0
0
0
0
0
0
0
0
0
0
0
0
0
0
0
0
0
0
0
0
0
0
0
0
0
0
0
0
0
0
0
0
0
0
0
0
0
0
0
0
0
0
0
0
0
0
0
0
0
0
0
0
0
0
0
0
0
0
0
0
0
0
0
0
0
0
0
0
0
0
0
0
0
0
0
0
0
0
0
0
0
0
0
0
0
0
0
0
0
0
0
0
0
0
0
0
0
0
0
0
0
0
0
0
0
0
0
0
0
0
0
0
0
0
0
0
0
0
0
0
0
0
0
0
0
0
0
0
0
0
0
0
0
0
0
0
0
0
0
0
0
0
0
0
0
0
0
0
0
0
0
0
0
0
0
0
0
0
0
0
0
0
0
0
0
0
0
0
0
0
0
0
0
0
0
0
0
0
0
0
0
0
0
0
0
0
0
0
0
0
0
0
0
0
0
0
0
0
0
0
0
0
0
0
0
0
0
0
0
0
0
0
0
0
0
0
0
0
0
0
0
0
0
0
0
0
0
0
0
0
0
0
0
0
0
0
0
0
0
0
0
0
0
0
0
0
0
0
0
0
0
0
0
0
0
0
0
0
0
0
0
0
0
0
0
0
0
0
0
0
0
0
0
0
0
0
0
0
0
0
0
0
0
0
0
0
0
0
0
0
0
0
0
0
0
0
0
0
0
0
0
0
0
0
0
0
0
0
SCALARS m0s double 1
LOOKUP_TABLE table2
0
0
0
0
0
0
0
0
0
0
0
0
0
0
0
0
0
0
0
0
0
0
0
0
0
0
0
0
0
0
0
0
0
0
0
0
0
0
0
0
0
0
0
0
0
0
0
0
0
0
0
0
0
0
0
0
0
0
0
0
0
0
0
0
0
0
0
0
0
0
0
0
0
0
0
0
0
0
0
0
0
0
0
0
0
0
0
0
0
0
0
0
0
0
0
0
0
0
0
0
0
0
0
0
0
0
0
0
0
0
0
0
0
0
0
0
0
0
0
0
0
0
0
0
0
0
0
0
0
0
0
0
0
0
0
0
0
0
0
0
0
0
0
0
0
0
0
0
0
0
0
0
0
0
0
0
0
0
0
0
0
0
0
0
0
0
0
0
0
0
0
0
0
0
0
0
0
0
0
0
0
0
0
0
0
0
0
0
0
0
0
0
0
0
0
0
0
0
0
0
0
0
0
0
0
0
0
0
0
0
0
0
0
0
0
0
0
0
0
0
0
0
0
0
0
0
0
0
0
0
0
0
0
0
0
0
0
0
0
0
0
0
0
0
0
0
0
0
0
0
0
0
0
0
0
0
0
0
0
0
0
0
0
0
0
0
0
0
0
0
0
0
0
0
0
0
0
0
0
0
0
0
0
0
0
0
0
0
0
0
0
0
0
0
0
0
0
0
0
0
0
0
0
0
0
0
0
0
0
0
0
0
0
0
0
0
0
0
0
0
0
0
0
0
0
0
0
0
0
0
0
0
0
0
0
0
0
0
0
0
0
0
0
0
0
0
0
0
0
0
0
0
0
0
0
0
0
0
0
0
0
0
0
0
0
0
0
0
0
0
0
0
0
0
0
0
0
0
0
0
0
0
0
0
0
0
0
0
0
0
0
0
0
0
0
0
0
0
0
0
0
0
0
0
0
0
0
0
0
0
0
0
0
0
0
0
0
0
0
0
0
0
0
0
0
0
0
0
0
0
0
0
0
0
0
0
0
0
0
0
0
0
0
0
0
0
0
0
0
0
0
0
0
0
0
0
0
0
0
0
0
0
0
0
0
0
0
0
0
0
0
0
0
0
0
0
0
0
0
0
0
0
0
0
0
0
0
0
0
0
0
0
0
0
0
0
0
0
0
0
0
0
0
0
0
0
0
0
0
0
0
0
0
0
0
0
0
0
0
0
0
0
0
0
0
0
0
0
0
0
0
0
0
0
0
0
0
0
0
0
0
0
0
0
0
0
0
0
0
0
0
0
0
0
0
0
0
0
0
0
0
0
0
0
0
0
0
0
0
0
0
0
0
0
0
0
0
0
0
0
0
0
0
0
0
0
0
0
0
0
0
0
0
0
0
0
0
0
0
0
0
0
0
0
0
0
0
0
0
0
0
0
0
0
0
0
0
0
0
0
0
0
0
0
0
0
0
0
0
0
0
0
0
0
0
0
0
0
0
0
0
0
0
0
0
0
0
0
0
0
0
0
0
0
0
0
0
0
0
0
0
0
0
0
0
0
0
0
0
0
0
0
0
0
0
0
0
0
0
0
0
0
0
0
0
0
0
0
0
0
0
0
0
0
0
0
0
0
0
0
0
0
0
0
0
0
0
0
0
0
0
0
0
0
0
0
0
0
0
0
0
0
0
0
0
0
0
0
0
0
0
0
0
0
0
0
0
0
0
0
0
0
0
0
0
0
0
0
0
0
0
0
0
0
0
0
0
0
0
0
0
0
0
0
0
0
0
0
0
0
0
0
0
0
0
0
0
0
0
0
0
0
0
0
0
0
0
0
0
0
0
0
0
0
0
0
0
0
0
0
0
0
0
0
0
0
0
0
0
0
0
0
0
0
0
0
0
0
0
0
0
0
0
0
0
0
0
0
0
0
0
0
0
0
0
0
0
0
0
0
0
0
0
0
0
0
0
0
0
0
0
0
0
0
0
0
0
0
0
0
0
0
0
0
0
0
0
0
0
0
0
0
0
0
0
0
0
0
0
0
0
0
0
0
0
0
0
0
0
0
0
0
0
0
0
0
0
0
0
0
0
0
0
0
0
0
0
0
0
0
0
0
0
0
0
0
0
0
0
0
0
0
0
0
0
0
0
0
0
0
0
0
0
0
0
0
0
0
0
0
0
0
0
0
0
0
0
0
0
0
0
0
0
0
0
0
0
0
0
0
0
0
0
0
0
0
0
0
0
0
0
0
0
0
0
0
0
0
0
0
0
0
0
0
0
0
0
0
0
0
0
0
0
0
0
0
0
0
0
0
0
0
0
0
0
0
0
0
0
0
0
0
0
0
0
0
0
0
0
0
0
0
0
0
0
0
0
0
0
0
0
0
0
0
0
0
0
0
0
0
0
0
0
0
0
0
0
0
0
0
0
0
0
0
0
0
0
0
0
0
0
0
0
0
0
0
0
0
0
0
0
0
0
0
0
0
0
0
0
0
0
0
0
0
0
0
0
0
0
0
0
0
0
0
0
0
0
0
0
0
0
0
0
0
0
0
0
0
0
0
0
0
0
0
0
0
0
0
0
0
0
0
0
0
0
0
0
0
0
0
0
0
0
0
0
0
0
0
0
0
0
0
0
0
0
0
0
0
0
0
0
0
0
0
0
0
0
0
0
0
0
0
0
0
0
0
0
0
0
0
0
0
0
0
0
0
0
0
0
0
0
0
0
0
0
0
0
0
0
0
0
0
0
0
0
0
0
0
0
0
0
0
0
0
0
0
0
0
0
0
0
0
0
0
0
0
0
0
0
0
0
0
0
0
0
0
0
0
0
0
0
0
0
0
0
0
0
0
0
0
0
0
0
0
0
0
0
0
0
0
0
0
0
0
0
0
0
0
0
0
0
0
0
0
0
0
0
0
0
0
0
0
0
0
0
0
0
0
0
0
0
0
0
0
0
0
0
0
0
0
0
0
0
0
0
0
0
0
0
0
0
0
0
0
0
0
0
0
0
0
0
0
0
0
0
0
0
0
0
0
0
0
0
0
0
0
0
0
0
0
0
0
0
0
0
0
0
0
0
0
0
0
0
0
0
0
0
0
0
0
0
0
0
0
0
0
0
0
0
0
0
0
0
0
0
0
0
0
0
0
0
0
0
0
0
0
0
0
0
0
0
0
0
0
0
0
0
0
0
0
0
0
0
0
0
0
0
0
0
0
0
0
0
0
0
0
0
0
0
0
0
0
0
0
0
0
0
0
0
0
0
0
0
0
0
0
0
0
0
0
0
0
0
0
0
0
0
0
0
0
0
0
0
0
0
0
0
0
0
0
0
0
0
0
0
0
0
0
0
0
0
0
0
0
0
0
0
0
0
0
0
0
0
0
0
0
0
0
0
0
0
0
0
0
0
0
0

POINT_DATA	1487
SCALARS model double 1
LOOKUP_TABLE table0
-0.0372193
3.50064
-13.3607
-10.0763
-6.24299
0.219363
0.416797
-12.1137
-7.2676
-3.80315
-0.0329465
2.94
-10.4152
-4.00611
-0.997742
0.105656
-1.19662
-10.6893
-2.83365
0.855329
0.404662
-6.99081
-17.6658
-6.03915
0.250297
-0.808639
-0.9984
-11.1315
-6.61419
-1.58467
-0.542977
0.187111
-3.74211
-3.66358
-2.37045
0.479092
-12.3967
-5.0262
-1.01856
-2.20193
-0.180114
4.90677
4.06088
-0.246327
-5.18617
0.136766
-2.66392
-5.05036
-7.90224
-11.847
-0.409433
3.09001
-3.4239
-1.41493
-0.64398
-0.0909634
1.0769
1.0728
2.81512
2.29651
0.967988
-17.6819
6.43505
8.81424
6.09061
-0.105609
-0.869744
13.7143
14.4338
9.74849
0.360175
-4.58335
4.72468
13.1969
11.0793
-0.903233
3.77595
-1.70961
7.06644
9.23212
-1.53045
0.0834075
-1.02074
3.12811
6.01398
-0.775118
3.30217
-2.29594
0.390704
2.11631
-0.0195375
-6.86836
-4.79593
-4.29049
-5.27938
-0.0781111
-1.35402
-5.89353
-9.4509
-12.378
-0.455511
-2.99589
0.500716
1.11478
0.989791
-0.836384
-4.15134
7.93352
5.74806
3.63621
-0.0730413
10.4008
31.6333
27.7738
37.2594
31.7683
37.1154
80.8689
50.9162
29.1318
13.8103
7.32665
-2.49292
13.6339
5.12238
3.55205
13.1534
60.9117
12.5141
42.6061
47.267
40.3851
19.4116
36.4429
82.9606
81.6649
80.0554
95.651
115.609
132.64
116.083
129.024
109.392
63.2605
81.0269
45.2608
64.7081
96.8651
111.757
78.8258
100.812
111.823
61.9048
23.9783
11.4517
5.11759
-17.6015
2.43478
-57.9077
-41.5634
36.1449
61.8904
0.078248
9.61391
49.685
27.2719
14.1105
0.862447
-23.462
8.95864
19.6453
14.2427