# vtk DataFile Version 3.0
Gravity inversion using rectangular prisms
ASCII
DATASET UNSTRUCTURED_GRID

POINTS	1501	double
100	100	100
100	100	300
100	100	500
100	100	700
100	100	900
100	300	100
100	300	300
100	300	500
100	300	700
100	300	900
100	500	100
100	500	300
100	500	500
100	500	700
100	500	900
100	700	100
100	700	300
100	700	500
100	700	700
100	700	900
100	900	100
100	900	300
100	900	500
100	900	700
100	900	900
100	1100	100
100	1100	300
100	1100	500
100	1100	700
100	1100	900
100	1300	100
100	1300	300
100	1300	500
100	1300	700
100	1300	900
100	1500	100
100	1500	300
100	1500	500
100	1500	700
100	1500	900
100	1700	100
100	1700	300
100	1700	500
100	1700	700
100	1700	900
100	1900	100
100	1900	300
100	1900	500
100	1900	700
100	1900	900
300	100	100
300	100	300
300	100	500
300	100	700
300	100	900
300	300	100
300	300	300
300	300	500
300	300	700
300	300	900
300	500	100
300	500	300
300	500	500
300	500	700
300	500	900
300	700	100
300	700	300
300	700	500
300	700	700
300	700	900
300	900	100
300	900	300
300	900	500
300	900	700
300	900	900
300	1100	100
300	1100	300
300	1100	500
300	1100	700
300	1100	900
300	1300	100
300	1300	300
300	1300	500
300	1300	700
300	1300	900
300	1500	100
300	1500	300
300	1500	500
300	1500	700
300	1500	900
300	1700	100
300	1700	300
300	1700	500
300	1700	700
300	1700	900
300	1900	100
300	1900	300
300	1900	500
300	1900	700
300	1900	900
500	100	100
500	100	300
500	100	500
500	100	700
500	100	900
500	300	100
500	300	300
500	300	500
500	300	700
500	300	900
500	500	100
450	450	250
450	450	350
450	550	250
450	550	350
550	450	250
550	450	350
550	550	250
550	550	350
500	500	500
500	500	700
500	500	900
450	650	50
450	650	150
450	750	50
450	750	150
550	650	50
550	650	150
550	750	50
550	750	150
450	650	250
450	650	350
450	750	250
450	750	350
525	625	225
525	625	275
525	675	225
525	675	275
575	625	225
575	625	275
575	675	225
575	675	275
550	650	350
525	725	225
525	725	275
525	775	225
525	775	275
575	725	225
575	725	275
575	775	225
575	775	275
550	750	350
500	700	500
500	700	700
500	700	900
500	900	100
450	850	250
450	850	350
450	950	250
450	950	350
550	850	250
550	850	350
550	950	250
550	950	350
500	900	500
500	900	700
500	900	900
500	1100	100
500	1100	300
500	1100	500
500	1100	700
500	1100	900
500	1300	100
500	1300	300
500	1300	500
500	1300	700
500	1300	900
500	1500	100
500	1500	300
500	1500	500
500	1500	700
500	1500	900
500	1700	100
500	1700	300
500	1700	500
500	1700	700
500	1700	900
500	1900	100
500	1900	300
500	1900	500
500	1900	700
500	1900	900
700	100	100
700	100	300
700	100	500
700	100	700
700	100	900
700	300	100
700	300	300
700	300	500
700	300	700
700	300	900
650	450	50
650	450	150
650	550	50
650	550	150
750	450	50
750	450	150
750	550	50
750	550	150
650	450	250
650	450	350
625	525	225
625	525	275
625	575	225
625	575	275
675	525	225
675	525	275
675	575	225
675	575	275
650	550	350
750	450	250
750	450	350
750	550	250
750	550	350
700	500	500
700	500	700
700	500	900
625	625	25
625	625	75
625	675	25
625	675	75
675	625	25
675	625	75
675	675	25
675	675	75
625	625	125
625	625	175
625	675	125
625	675	175
675	625	125
675	625	175
675	675	125
675	675	175
650	750	50
625	725	125
625	725	175
625	775	125
625	775	175
675	725	125
675	725	175
675	775	125
675	775	175
725	625	25
725	625	75
725	675	25
725	675	75
775	625	25
775	625	75
775	675	25
775	675	75
725	625	125
725	625	175
725	675	125
725	675	175
775	625	125
775	625	175
775	675	125
775	675	175
750	750	50
725	725	125
725	725	175
725	775	125
725	775	175
775	725	125
775	725	175
775	775	125
775	775	175
625	625	225
625	625	275
625	675	225
625	675	275
675	625	225
675	625	275
675	675	225
675	675	275
625	625	325
625	625	375
625	675	325
625	675	375
675	625	325
675	625	375
675	675	325
675	675	375
625	725	225
625	725	275
625	775	225
625	775	275
675	725	225
675	725	275
675	775	225
675	775	275
625	725	325
625	725	375
625	775	325
625	775	375
675	725	325
675	725	375
675	775	325
675	775	375
750	650	250
750	650	350
750	750	250
750	750	350
650	650	450
650	650	550
650	750	450
650	750	550
750	650	450
750	650	550
750	750	450
750	750	550
700	700	700
700	700	900
650	850	50
650	850	150
650	950	50
650	950	150
750	850	50
750	850	150
750	950	50
750	950	150
625	825	225
625	825	275
625	875	225
625	875	275
675	825	225
675	825	275
675	875	225
675	875	275
650	850	350
650	950	250
650	950	350
725	825	225
725	825	275
725	875	225
725	875	275
775	825	225
775	825	275
775	875	225
775	875	275
750	850	350
750	950	250
750	950	350
700	900	500
700	900	700
700	900	900
650	1050	50
650	1050	150
650	1150	50
650	1150	150
750	1050	50
750	1050	150
750	1150	50
750	1150	150
650	1050	250
650	1050	350
650	1150	250
650	1150	350
725	1025	225
725	1025	275
725	1075	225
725	1075	275
775	1025	225
775	1025	275
775	1075	225
775	1075	275
750	1050	350
725	1125	225
725	1125	275
725	1175	225
725	1175	275
775	1125	225
775	1125	275
775	1175	225
775	1175	275
750	1150	350
700	1100	500
700	1100	700
700	1100	900
700	1300	100
650	1250	250
650	1250	350
650	1350	250
650	1350	350
750	1250	250
750	1250	350
750	1350	250
750	1350	350
700	1300	500
700	1300	700
700	1300	900
700	1500	100
650	1450	250
650	1450	350
650	1550	250
650	1550	350
750	1450	250
750	1450	350
750	1550	250
750	1550	350
700	1500	500
700	1500	700
700	1500	900
700	1700	100
700	1700	300
700	1700	500
700	1700	700
700	1700	900
700	1900	100
700	1900	300
700	1900	500
700	1900	700
700	1900	900
900	100	100
900	100	300
900	100	500
900	100	700
900	100	900
900	300	100
900	300	300
900	300	500
900	300	700
900	300	900
850	450	50
850	450	150
850	550	50
850	550	150
950	450	50
950	450	150
950	550	50
950	550	150
850	450	250
850	450	350
850	550	250
850	550	350
950	450	250
950	450	350
950	550	250
950	550	350
900	500	500
900	500	700
900	500	900
850	650	50
825	625	125
825	625	175
825	675	125
825	675	175
875	625	125
875	625	175
875	675	125
875	675	175
850	750	50
850	750	150
950	650	50
950	650	150
950	750	50
950	750	150
850	650	250
850	650	350
850	750	250
850	750	350
925	625	225
925	625	275
925	675	225
925	675	275
975	625	225
975	625	275
975	675	225
975	675	275
925	625	325
925	625	375
925	675	325
925	675	375
975	625	325
975	625	375
975	675	325
975	675	375
925	725	225
925	725	275
925	775	225
925	775	275
975	725	225
975	725	275
975	775	225
975	775	275
925	725	325
925	725	375
925	775	325
925	775	375
975	725	325
975	725	375
975	775	325
975	775	375
850	650	450
850	650	550
850	750	450
850	750	550
950	650	450
950	650	550
950	750	450
950	750	550
900	700	700
900	700	900
850	850	50
850	850	150
850	950	50
850	950	150
950	850	50
950	850	150
950	950	50
950	950	150
850	850	250
850	850	350
850	950	250
850	950	350
950	850	250
950	850	350
950	950	250
950	950	350
850	850	450
850	850	550
850	950	450
850	950	550
950	850	450
950	850	550
950	950	450
950	950	550
900	900	700
900	900	900
900	1100	100
850	1050	250
850	1050	350
850	1150	250
850	1150	350
950	1050	250
950	1050	350
950	1150	250
950	1150	350
900	1100	500
900	1100	700
900	1100	900
850	1250	50
850	1250	150
850	1350	50
850	1350	150
950	1250	50
950	1250	150
950	1350	50
950	1350	150
825	1225	225
825	1225	275
825	1275	225
825	1275	275
875	1225	225
875	1225	275
875	1275	225
875	1275	275
850	1250	350
825	1325	225
825	1325	275
825	1375	225
825	1375	275
875	1325	225
875	1325	275
875	1375	225
875	1375	275
850	1350	350
925	1225	225
925	1225	275
925	1275	225
925	1275	275
975	1225	225
975	1225	275
975	1275	225
975	1275	275
950	1250	350
925	1325	225
925	1325	275
925	1375	225
925	1375	275
975	1325	225
975	1325	275
975	1375	225
975	1375	275
950	1350	350
900	1300	500
900	1300	700
900	1300	900
850	1450	50
850	1450	150
850	1550	50
850	1550	150
950	1450	50
950	1450	150
950	1550	50
950	1550	150
825	1425	225
825	1425	275
825	1475	225
825	1475	275
875	1425	225
875	1425	275
875	1475	225
875	1475	275
850	1450	350
825	1525	225
825	1525	275
825	1575	225
825	1575	275
875	1525	225
875	1525	275
875	1575	225
875	1575	275
850	1550	350
925	1425	225
925	1425	275
925	1475	225
925	1475	275
975	1425	225
975	1425	275
975	1475	225
975	1475	275
950	1450	350
925	1525	225
925	1525	275
925	1575	225
925	1575	275
975	1525	225
975	1525	275
975	1575	225
975	1575	275
950	1550	350
850	1450	450
850	1450	550
850	1550	450
850	1550	550
950	1450	450
950	1450	550
950	1550	450
950	1550	550
900	1500	700
900	1500	900
900	1700	100
850	1650	250
850	1650	350
850	1750	250
850	1750	350
950	1650	250
950	1650	350
950	1750	250
950	1750	350
900	1700	500
900	1700	700
900	1700	900
900	1900	100
900	1900	300
900	1900	500
900	1900	700
900	1900	900
1100	100	100
1100	100	300
1100	100	500
1100	100	700
1100	100	900
1100	300	100
1100	300	300
1100	300	500
1100	300	700
1100	300	900
1100	500	100
1050	450	250
1050	450	350
1050	550	250
1050	550	350
1150	450	250
1150	450	350
1150	550	250
1150	550	350
1100	500	500
1100	500	700
1100	500	900
1050	650	50
1050	650	150
1050	750	50
1050	750	150
1150	650	50
1150	650	150
1150	750	50
1150	750	150
1025	625	225
1025	625	275
1025	675	225
1025	675	275
1075	625	225
1075	625	275
1075	675	225
1075	675	275
1050	650	350
1025	725	225
1025	725	275
1025	775	225
1025	775	275
1075	725	225
1075	725	275
1075	775	225
1075	775	275
1050	750	350
1150	650	250
1150	650	350
1150	750	250
1150	750	350
1100	700	500
1100	700	700
1100	700	900
1100	900	100
1050	850	250
1050	850	350
1050	950	250
1050	950	350
1150	850	250
1150	850	350
1150	950	250
1150	950	350
1100	900	500
1100	900	700
1100	900	900
1050	1050	50
1050	1050	150
1050	1150	50
1050	1150	150
1150	1050	50
1150	1050	150
1150	1150	50
1150	1150	150
1050	1050	250
1050	1050	350
1050	1150	250
1050	1150	350
1150	1050	250
1150	1050	350
1150	1150	250
1150	1150	350
1050	1050	450
1050	1050	550
1050	1150	450
1050	1150	550
1150	1050	450
1150	1050	550
1150	1150	450
1150	1150	550
1100	1100	700
1100	1100	900
1050	1250	50
1025	1225	125
1025	1225	175
1025	1275	125
1025	1275	175
1075	1225	125
1075	1225	175
1075	1275	125
1075	1275	175
1025	1325	25
1025	1325	75
1025	1375	25
1025	1375	75
1075	1325	25
1075	1325	75
1075	1375	25
1075	1375	75
1025	1325	125
1025	1325	175
1025	1375	125
1025	1375	175
1075	1325	125
1075	1325	175
1075	1375	125
1075	1375	175
1150	1250	50
1150	1250	150
1150	1350	50
[...]
CELL_DATA	1501
SCALARS model double 1
LOOKUP_TABLE table0
-0.0451569
3.4765
-13.4748
-10.0366
-6.14546
0.172329
0.395654
-12.1308
-7.18575
-3.69478
-0.0423277
2.87002
-10.3239
-3.83449
-0.85391
0.104493
-1.33982
-10.3378
-2.50627
1.06949
0.408309
-7.29191
-17.1704
-5.57259
0.55296
-0.826828
-1.29085
-10.8562
-6.22311
-1.2651
-0.531829
0.153553
-3.76432
-3.50188
-2.14475
0.493106
-12.5636
-5.17372
-1.01579
-2.09617
-0.160214
4.92074
3.9908
-0.27744
-5.14601
0.13968
-2.685
-5.15227
-7.97648
-11.8532
-0.439172
3.06718
-3.41381
-1.36039
-0.574174
-0.157882
1.18253
1.13328
2.86054
2.34912
0.948993
-18.1145
6.569
8.85956
6.12946
0.0624464
-1.01701
13.8735
14.5141
9.78806
0.529371
-3.03186
5.05377
13.3968
11.157
-0.912211
3.91432
-1.51085
7.3041
9.36165
-1.46914
-0.0347864
-0.938901
3.27496
6.14863
-0.794583
3.52253
-2.25756
0.4636
2.22667
-0.0207557
-6.99932
-4.8226
-4.2365
-5.16683
-0.0823406
-1.32814
-5.9058
-9.39769
-12.2903
-0.493559
-3.17086
0.527095
1.15769
1.04145
-1.09102
-4.16514
7.93804
5.75899
3.66139
-1.269
17.6653
33.7887
32.3738
38.1599
32.48
36.2858
74.4382
44.6919
29.0213
13.7638
7.31718
-2.95942
10.3425
6.17544
2.76853
6.95434
90.503
11.1642
32.5441
30.6279
40.3289
14.6113
44.4183
97.7311
95.8632
81.5865
80.8239
135.473
102.352
118.48
100.082
97.6622
52.6596
62.5672
35.8731
47.8179
83.86
94.4394
66.2609
83.4078
102.426
61.7038
23.8587
11.4036
5.83926
-25.1657
1.58815
-77.4741
-41.422
44.7546
43.9969
1.50791
7.47122
50.0808
27.2214
14.05
1.11635
-21.7501
9.45344
19.7651
14.2143
-0.821808
-11.8797
-1.0257
12.5958
13.2396
-1.07384
-7.51837
-1.98474
7.16823
10.1592
-0.934958
-2.38019
-5.13275
-2.09968
0.24855
-1.0032
5.27891
-1.04669
-6.86457
-8.81218
-0.632563
0.333984
1.05382
1.15415
0.964954
-2.19699
14.1379
7.86413
4.44284
2.43041
-5.25558
40.106
5.74859
108.552
-2.10511
37.456
13.6172
79.1899
76.684
72.2264
97.0615
103.67
135.738
148.665
125.462
152.461
149.178
192.776
103.107
114.549
85.0617
162.735
108.955
26.5177
10.1635
4.28508
8.69449
43.8783
11.9747
43.7663
9.92007
42.7767
15.9062
50.5129
81.893
136.981
77.1007
121.341
79.4915
143.349
83.7798
145.328
21.0235
63.0363
102.231
55.7237
86.1997
82.6664
135.358
79.2805
120.305
11.255
35.4763
15.4132
48.58
17.0979
48.7346
18.1059
52.3785
56.0669
146.004
83.3017
162.226
82.8301
133.791
85.0228
155.113
29.8709
94.1343
151.576
91.0574
139.774
96.0894
149.87
86.1648
150.914
151.586
163.895
147.907
151.101
182.423
204.126
186.392
187.906
154.813
118.876
181.318
162.896
218.319
188.829
241.213
229.999
123.639
129.359
96.5274
113.02
169.996
175.579
145.26
157.455
164.651
160.253
137.053
134.372
214.346
223.123
175.829
188.55
289.594
242.244
265.871
242.213
73.213
58.7003
81.0083
63.3353
75.4821
61.5156
81.2809
64.9531
18.2573
6.29907
21.1574
68.2847
1.51875
26.5521
17.727
80.8781
2.50469
8.22314
90.6086
107.759
75.2393
87.1383
121.812
139.618
97.6707
115.473
129.281
38.9649
68.0257
156.023
158.775
110.417
132.677
171.163
173.543
120.61
146.369
138.189
37.1897
80.9549
77.7237
23.3777
8.06109
-0.947582
5.22496
-0.315366
8.48537
-1.53933
-4.47629
-1.04206
-12.1162
-1.13602
-18.7787
-26.5758
-41.6548
14.5996
10.1033
-9.73226
-22.3817
25.3019
6.89884
5.31573
-30.3632
-25.6348
-21.5683
-37.0092
-36.6408
-40.0298
-11.3716
-35.2166
-29.4302
-27.9965
-56.0768
38.7819
23.3928
10.6726
-1.51951
-30.5704
-25.1786
-18.9666
-16.8368
-19.7986
-23.9371
11.8742
0.918354
29.1036
26.8031
16.0832
-2.15145
-24.9303
-16.0261
-29.9316
-16.7153
20.2867
10.5502
-5.94323
-6.86817
22.0521
25.8196
19.8442
-2.13839
-2.85752
-5.06741
4.73181
9.74031
-0.691754
-9.78264
-14.7241
-9.1637
-4.96612
-0.586783
0.485739
0.765009
0.735227
0.504199
-1.60311
9.05926
3.75167
1.57775
0.279996
-2.10982
18.6629
8.66553
53.9077
-3.11597
24.6769
-6.69498
53.6084
77.563
43.3755
109.241
61.9722
77.2342
44.037
91.5958
55.5234
9.37647
1.76618
-0.933334
18.8747
96.484
100.316
94.5546
119.309
38.6806
79.1465
78.9643
101.602
12.7232
97.1635
-0.0788571
105.824
-10.9357
88.4067
217.352
172.473
209.066
173.28
162.488
182.181
172.105
202.311
86.9734
103.581
104.698
116.779
163.728
137.292
187.514
155.798
124.801
113.067
137.993
123.443
157.609
196.184
133.719
173.192
103.338
115.104
91.5248
107.606
187.142
153.796
171.964
144.4
131.557
115.706
119.832
106.036
31.7617
21.0215
35.3459
23.3877
25.8423
20.167
26.2121
20.7688
1.07527
-3.20278
3.55212
56.1633
-4.96025
2.80592
-14.2861
87.2253
-12.9397
3.18899
138.723
122.299
65.5334
94.9768
117.81
106.703
81.8608
99.2184
40.4404
31.7127
35.5117
30.696
33.746
29.2291
34.312
29.9809
1.52011
-4.42731
-7.68714
35.7641
43.5959
23.8156
34.7965
43.8691
45.3989
40.0776
44.2539
41.6262
11.1136
0.225693
-9.07555
-5.6177
3.49646
24.7865
2.73081
41.2576
6.63779
69.159
-5.85035
-10.4816
1.56403
0.795996
15.4896
22.6113
31.7068
42.5366
22.4331
22.1065
49.4145
46.607
66.8723
60.5719
74.7271
78.374
81.2419
80.5342
49.9196
43.4461
57.2079
82.9362
78.9704
94.4463
87.0456
112.469
76.48
87.7313
118.797
125.709
146.831
116.537
167.705
154.12
218.471
145.868
90.8858
34.2915
12.8464
2.40216
30.2598
-3.93287
9.90338
18.3482
58.9029
-2.86432
32.8217
56.1118
72.6054
43.5525
54.9618
82.0857
101.592
71.1774
90.4828
92.7521
32.8743
43.1244
9.09399
10.0684
59.0816
75.9697
33.3021
39.3665
49.4512
98.9005
136.292
73.6898
107.942
117.644
173.563
94.3412
136.874
165.229
74.954
101.731
59.361
71.846
89.0178
117.871
83.0156
99.7162
99.8427
96.8492
88.0032
70.8522
80.4548
132.404
108.416
110.235
102.799
51.2543
25.9085
-3.43949
-11.0351
10.5923
8.49479
15.1991
30.9622
32.7702
2.15434
4.60752
11.9159
20.2023
20.4264
0.0228066
-8.14344
-16.7031
-6.40011
0.798877
-0.016906
0.697173
0.732356
0.492107
0.128441
-0.00120165
0.00571561
-0.553588
-1.31314
-1.91124
-1.18911
-21.4261
-22.5329
-22.5462
-23.1608
-23.9487
-21.6768
-36.5882
-25.4162
-10.5429
-7.7154
-6.56638
-1.7959
0.0302661
-7.47617
22.8231
0.464219
-69.1516
-8.87945
-19.7275
38.3185
7.9537
52.5326
16.3738
-81.3439
-100.469
-55.186
-97.2939
-69.2614
66.9701
33.0143
58.8122
35.3025
-30.0129
-80.6187
-27.9144
-70.7202
-73.9916
-146.946
-97.5678
-138.425
-99.7743
-35.6414
-20.1773
-13.7722
-10.5315
-32.0484
-27.1766
-3.47395
-9.19536
-41.6738
-33.3279
15.3543
-8.53166
-36.388
-26.0008
-18.1912
-8.25299
-9.21361
-5.7279
-15.4505
-6.04248
-15.3135
1.87087
-18.8707
57.2886
58.4763
42.5643
54.6385
70.2402
61.3582
40.1202
52.5303
12.5295
7.70146
14.4015
11.4935
12.6475
7.88324
12.9371
11.0072
-8.72678
-11.6899
-4.00137
-5.34769
44.1972
40.994
80.597
1.41894
64.9024
30.0775
91.6643
13.6643
40.571
18.1179
53.1486
13.6265
34.5343
19.9496
54.5535
69.3082
117.933
86.3284
123.388
65.3411
138.338
88.673
139.617
4.78161
40.5541
22.679
64.3487
115.676
85.3945
134.69
83.5862
141.307
96.2007
132.661
150.293
163.097
230.406
208.606
143.485
164.638
204.929
191.939
93.8677
87.37
116.945
97.7709
92.0929
87.8478
109.645
96.0974
25.496
5.61349
15.3244
73.4195
2.97961
27.6611
25.9549
87.7039
13.083
30.3584
156.927
207.164
118.152
159.612
144.062
218.528
119.168
168.015
198.577
85.3813
117.452
84.6364
111.421
86.8057
117.53
86.4054
114.442
132.35
140.622
215.004
131.095
172.338
159.993
207.931
150.487
186.04
186.072
93.9173
143.228
168.718
148.293
145.357
136.651
167.035
150.7
151.523
141.033
65.4487
54.8848
65.8964
54.3031
64.6825
55.3101
64.877
54.5408
23.9956
-0.766049
38.8533
40.3345
-6.57885
-9.46583
41.4236
38.7943
-18.6097
-19.6861
42.2722
41.5866
-1.40165
9.1558
41.8676
41.3847
0.227732
12.2284
33.0019
24.9603
0.952315
-33.3348
-11.196
-0.0296338
5.97077
0.0128753
0.869809
0.930883
0.482343
-0.00807841
-0.0724672
-5.89239
-3.76783
-3.64977
-3.66108
1.15176
-27.4673
-5.78532
-83.0089
-6.53284
-25.9267
-17.1717
-51.676
-70.3628
-61.4225
-124.887
-81.8673
-70.0427
-57.4154
-119.788
-79.31
-25.5572
-15.3542
-11.037
-1.72165
-29.7411
-7.34943
-36.0058
1.69324
-24.5487
-7.17167
-40.1766
-71.0806
-146.159
-82.1647
-163.2
-80.1301
-146.09
-105.527
-182.304
-19.1058
-82.4232
-177.984
-74.3924
-200.801
-121.797
-220.813
-82.8888
-237.764
-7.93323
-38.0352
-14.3917
-53.0413
-19.0864
-49.3923
-25.0529
-69.4743
-70.0889
-120.819
-106.804
-169.668
-55.3963
-97.7747
-95.7521
-140.574
-13.4951
-52.8128
-15.5376
-46.244
-15.1327
-59.2978
-11.9077
-45.8807
-124.017
-206.159
-72.2175
-208.115
-117.717
-165.08
-77.9382
-162.974
-287.852
-245.515
-208.471
-273.626
-237.588
-260.893
-226.888
-291.884
-259.562
-262.555
-224.88
-280.911
-224.725
-268.835
-225.869
-89.0513
-76.9555
-93.4225
-80.4084
-87.1082
-74.4181
-91.8848
-78.4668
-35.2673
-21.2309
-20.3953
-22.1469
-10.4572
-15.5559
-32.2563
-19.8476
-10.5877
-14.344
-77.3711
-83.6854
-50.9316
-63.7526
-101.793
-91.4034
-74.0849
-73.4333
-68.2893
-41.3862
-26.0596
-2.24555
-3.63204
0.961645
-18.1867
-2.96757
-8.36316
-2.97916
-3.25965
0.570635
-18.2095
-20.6533
-17.8815
6.58321
45.5742
19.6856
111.361
5.33904
64.8276
17.8624
112.512
118.967
133.445
182.144
163.128
151.201
141.514
156.708
208.526
193.495
227.685
161.524
215.617
191.514
227.086
169.268
59.4293
54.9961
75.6187
62.4882
58.7593
52.2328
71.0675
56.8721
12.6652
-0.340368
25.0954
78.9946
120.459
52.8321
100.967
94.6755
100.711
58.5904
92.0293
2.38068
28.2118
61.9454
9.67933
48.8263
29.42
60.593
9.22334
46.5502
20.5951
56.4921
16.2311
37.7514
9.60556
33.6392
4.65076
20.5393
95.679
84.9357
48.6384
76.7598
74.6398
90.8487
33.6421
78.4208
2.799
29.687
58.8723
15.9939
49.1579
24.4084
57.4679
18.1631
56.5913
228.598
196.218
129.866
163.24
254.29
198.402
137.216
156.738
147.334
130.282
143.793
128.203
137.705
121.548
129.461
117.193
42.0436
17.1162
4.91887
13.1765
-5.22818
-4.20348
0.864363
0.506636
1.40617
-10.7453
37.1662
42.1218
1.92838
15.3971
-18.013
-8.05205
10.0579
25.03
-7.1686
2.91691
-13.6252
28.4047
36.0431
-10.0163
-16.053
31.0684
31.1546
20.9829
0.326624
-31.4047
-18.2474
29.3357
17.7505
-9.63017
-9.5503
9.32176
3.78454
-2.51691
2.19934
6.29415
-0.390543
4.63895
1.98353
0.902488
0.379589
-0.514985
-3.04759
-4.869
-4.8342
-4.33139
-3.21541
-24.2643
-14.7754
-41.3385
0.494177
-18.4837
-4.77834
-43.456
-56.0536
-45.9896
-101.098
-66.5554
5.94727
-26.3966
-44.7343
-46.737
-29.6585
-18.1078
-12.5083
-7.86124
-32.246
-24.5763
-61.25
-11.6023
-36.5589
-13.6548
-42.9442
-43.2196
-81.3107
-73.1119
-106.141
-51.3712
-86.7241
-59.8758
-98.6762
-19.8381
-59.388
-15.8835
-51.1655
-9.75837
-36.0102
-12.2508
-37.9876
-90.5369
-113.61
-97.0694
-97.9647
-62.8434
-96.3283
-62.4592
-73.4776
-8.27869
-38.8282
-68.2105
-35.7217
-70.0983
-48.0433
-68.4517
-42.0375
-73.4114
-6.91583
-45.743
-76.0959
-63.8446
-75.7825
-38.4136
-82.0949
-39.9147
-79.7812
-213.962
-166.848
-215.24
-169.317
-144.39
-138.64
-141.967
-137.846
-64.6537
-34.0851
-21.3642
-19.2492
-15.0435
-7.90965
-1.87473
-4.96703
-31.0484
-1.84975
-16.9928
-110.534
-85.4658
-71.8914
-68.7311
-54.0846
-61.1515
-20.9657
-51.4903
-49.0037
-32.7965
-22.8109
-0.864008
3.13831
2.43914
15.7356
4.65091
38.0728
10.5891
9.05063
-2.99798
-13.6402
-15.7466
-14.511
0.219837
58.4772
10.3698
70.2274
3.25317
11.4028
1.54661
32.962
122.925
96.2248
187.702
117.87
65.0281
68.991
110.436
75.7587
26.2527
5.40693
-1.51391
10.7889
82.2989
9.2802
42.7925
10.295
38.5006
-4.66763
19.7719
190.067
177.533
147.469
156.746
129.195
115.461
98.8923
108.077
136.134
104.672
122.039
81.5372
87.6564
79.8264
70.4987
62.9862
52.492
92.7336
88.0004
55.3238
69.3348
58.5602
54.5585
31.395
40.7512
42.8081
84.9207
55.5007
29.8687
45.8274
31.3025
41.8807
5.44146
35.8606
16.524
43.1566
70.8701
57.8249
61.7517
54.471
45.0611
43.9261
36.0113
41.0958
22.6741
10.3843
2.82669
16.4994
0.47891
-22.0154
-21.3453
3.38865
-8.53056
-26.8658
-16.3292
11.2612
17.1276
13.0792
1.95887
-18.3479
-13.2429
-3.65534
2.0374
0.0714664
-2.01465
2.80385
2.52836
2.25969
0.103363
6.47611
-2.84618
-3.17387
-2.47329
0.99116
-14.2748
-17.1563
-12.2943
-8.75688
4.82873
-16.4354
0.908028
-6.26186
0.747616
-3.27556
0.334555
5.43033
-15.9345
-16.3633
-3.55608
-13.1432
-19.7449
-16.7189
-2.62355
-13.1437
-20.8341
-16.7541
-12.7882
0.126203
-2.08728
-8.26786
-11.3269
-10.927
-0.309639
5.48552
0.172469
-3.61602
-5.25839
-0.0241656
11.4611
7.28604
3.66414
1.37724
1.06786
4.97695
1.01369
1.52669
4.31921
3.40712
-0.0201167
-2.55495
3.61465
13.3214
9.48635
7.01308
1.32647
-12.5504
-5.94988
4.77885
7.02
0.875064
4.96074
-15.5282
-8.76179
-2.12803
0.0202648
-1.48226
9.74799
8.8665
7.58347
0.314615
-1.48381
5.40071
4.37742
3.69753
0.731472
3.8138
3.01244
0.679594
0.228275
0.0739872
6.92906
4.24995
0.917934
-0.633258
0.0366197
3.3159
4.71942
2.89445
0.933508
-0.0194364
0.501075
3.25691
3.81968
3.03778
0.195917
-6.01608
1.52233
4.38392
5.07083
-0.237123
-3.17199
0.895713
5.09516
6.67605
-0.56486
8.7069
-3.23224
1.09769
4.75455
0.00388571
-2.25436
-11.1596
-8.284
-3.30119
SCALARS m0 double 1
LOOKUP_TABLE table1
0
0
0
0
0
0
0
0
0
0
0
0
0
0
0
0
0
0
0
0
0
0
0
0
0
0
0
0
0
0
0
0
0
0
0
0
0
0
0
0
0
0
0
0
0
0
0
0
0
0
0
0
0
0
0
0
0
0
0
0
0
0
0
0
0
0
0
0
0
0
0
0
0
0
0
0
0
0
0
0
0
0
0
0
0
0
0
0
0
0
0
0
0
0
0
0
0
0
0
0
0
0
0
0
0
0
0
0
0
0
0
0
0
0
0
0
0
0
0
0
0
0
0
0
0
0
0
0
0
0
0
0
0
0
0
0
0
0
0
0
0
0
0
0
0
0
0
0
0
0
0
0
0
0
0
0
0
0
0
0
0
0
0
0
0
0
0
0
0
0
0
0
0
0
0
0
0
0
0
0
0
0
0
0
0
0
0
0
0
0
0
0
0
0
0
0
0
0
0
0
0
0
0
0
0
0
0
0
0
0
0
0
0
0
0
0
0
0
0
0
0
0
0
0
0
0
0
0
0
0
0
0
0
0
0
0
0
0
0
0
0
0
0
0
0
0
0
0
0
0
0
0
0
0
0
0
0
0
0
0
0
0
0
0
0
0
0
0
0
0
0
0
0
0
0
0
0
0
0
0
0
0
0
0
0
0
0
0
0
0
0
0
0
0
0
0
0
0
0
0
0
0
0
0
0
0
0
0
0
0
0
0
0
0
0
0
0
0
0
0
0
0
0
0
0
0
0
0
0
0
0
0
0
0
0
0
0
0
0
0
0
0
0
0
0
0
0
0
0
0
0
0
0
0
0
0
0
0
0
0
0
0
0
0
0
0
0
0
0
0
0
0
0
0
0
0
0
0
0
0
0
0
0
0
0
0
0
0
0
0
0
0
0
0
0
0
0
0
0
0
0
0
0
0
0
0
0
0
0
0
0
0
0
0
0
0
0
0
0
0
0
0
0
0
0
0
0
0
0
0
0
0
0
0
0
0
0
0
0
0
0
0
0
0
0
0
0
0
0
0
0
0
0
0
0
0
0
0
0
0
0
0
0
0
0
0
0
0
0
0
0
0
0
0
0
0
0
0
0
0
0
0
0
0
0
0
0
0
0
0
0
0
0
0
0
0
0
0
0
0
0
0
0
0
0
0
0
0
0
0
0
0
0
0
0
0
0
0
0
0
0
0
0
0
0
0
0
0
0
0
0
0
0
0
0
0
0
0
0
0
0
0
0
0
0
0
0
0
0
0
0
0
0
0
0
0
0
0
0
0
0
0
0
0
0
0
0
0
0
0
0
0
0
0
0
0
0
0
0
0
0
0
0
0
0
0
0
0
0
0
0
0
0
0
0
0
0
0
0
0
0
0
0
0
0
0
0
0
0
0
0
0
0
0
0
0
0
0
0
0
0
0
0
0
0
0
0
0
0
0
0
0
0
0
0
0
0
0
0
0
0
0
0
0
0
0
0
0
0
0
0
0
0
0
0
0
0
0
0
0
0
0
0
0
0
0
0
0
0
0
0
0
0
0
0
0
0
0
0
0
0
0
0
0
0
0
0
0
0
0
0
0
0
0
0
0
0
0
0
0
0
0
0
0
0
0
0
0
0
0
0
0
0
0
0
0
0
0
0
0
0
0
0
0
0
0
0
0
0
0
0
0
0
0
0
0
0
0
0
0
0
0
0
0
0
0
0
0
0
0
0
0
0
0
0
0
0
0
0
0
0
0
0
0
0
0
0
0
0
0
0
0
0
0
0
0
0
0
0
0
0
0
0
0
0
0
0
0
0
0
0
0
0
0
0
0
0
0
0
0
0
0
0
0
0
0
0
0
0
0
0
0
0
0
0
0
0
0
0
0
0
0
0
0
0
0
0
0
0
0
0
0
0
0
0
0
0
0
0
0
0
0
0
0
0
0
0
0
0
0
0
0
0
0
0
0
0
0
0
0
0
0
0
0
0
0
0
0
0
0
0
0
0
0
0
0
0
0
0
0
0
0
0
0
0
0
0
0
0
0
0
0
0
0
0
0
0
0
0
0
0
0
0
0
0
0
0
0
0
0
0
0
0
0
0
0
0
0
0
0
0
0
0
0
0
0
0
0
0
0
0
0
0
0
0
0
0
0
0
0
0
0
0
0
0
0
0
0
0
0
0
0
0
0
0
0
0
0
0
0
0
0
0
0
0
0
0
0
0
0
0
0
0
0
0
0
0
0
0
0
0
0
0
0
0
0
0
0
0
0
0
0
0
0
0
0
0
0
0
0
0
0
0
0
0
0
0
0
0
0
0
0
0
0
0
0
0
0
0
0
0
0
0
0
0
0
0
0
0
0
0
0
0
0
0
0
0
0
0
0
0
0
0
0
0
0
0
0
0
0
0
0
0
0
0
0
0
0
0
0
0
0
0
0
0
0
0
0
0
0
0
0
0
0
0
0
0
0
0
0
0
0
0
0
0
0
0
0
0
0
0
0
0
0
0
0
0
0
0
0
0
0
0
0
0
0
0
0
0
0
0
0
0
0
0
0
0
0
0
0
0
0
0
0
0
0
0
0
0
0
0
0
0
0
0
0
0
0
0
0
0
0
0
0
0
0
0
0
0
0
0
0
0
0
0
0
0
0
0
0
0
0
0
0
0
0
0
0
0
0
0
0
0
0
0
0
0
0
0
0
0
0
0
0
0
0
0
0
0
0
0
0
0
0
0
0
0
0
0
0
0
0
0
0
0
0
0
0
0
0
0
0
0
0
0
0
0
0
0
0
0
0
0
0
0
0
0
0
0
0
0
0
0
0
0
0
0
0
0
0
0
0
0
0
0
0
0
0
0
0
0
0
0
0
0
0
0
0
0
0
0
0
0
0
0
0
0
0
0
0
0
0
0
0
0
0
0
0
0
0
0
0
0
0
0
0
0
0
0
0
0
0
0
0
0
0
0
0
0
0
0
0
0
0
0
0
0
0
0
0
0
0
0
0
0
0
0
0
0
0
0
0
0
0
0
0
0
0
0
0
0
0
0
0
0
0
0
0
0
0
0
0
0
0
0
0
0
0
0
0
0
0
0
0
0
0
0
0
0
0
0
0
0
0
0
0
0
0
0
0
0
0
0
0
0
0
0
0
0
0
0
0
0
0
0
0
0
0
0
0
0
0
0
0
0
0
0
0
0
0
0
0
0
0
0
0
0
0
0
0
0
0
0
0
0
0
0
0
0
0
0
0
0
0
0
0
0
0
0
0
0
0
0
0
0
0
0
0
0
0
0
0
0
0
0
0
0
0
0
0
0
0
0
0
0
0
0
0
0
0
0
0
0
0
0
0
0
0
0
0
0
0
0
0
0
0
0
0
0
0
0
0
0
0
0
0
0
0
0
0
0
0
0
0
0
0
0
0
0
0
0
SCALARS m0s double 1
LOOKUP_TABLE table2
0
0
0
0
0
0
0
0
0
0
0
0
0
0
0
0
0
0
0
0
0
0
0
0
0
0
0
0
0
0
0
0
0
0
0
0
0
0
0
0
0
0
0
0
0
0
0
0
0
0
0
0
0
0
0
0
0
0
0
0
0
0
0
0
0
0
0
0
0
0
0
0
0
0
0
0
0
0
0
0
0
0
0
0
0
0
0
0
0
0
0
0
0
0
0
0
0
0
0
0
0
0
0
0
0
0
0
0
0
0
0
0
0
0
0
0
0
0
0
0
0
0
0
0
0
0
0
0
0
0
0
0
0
0
0
0
0
0
0
0
0
0
0
0
0
0
0
0
0
0
0
0
0
0
0
0
0
0
0
0
0
0
0
0
0
0
0
0
0
0
0
0
0
0
0
0
0
0
0
0
0
0
0
0
0
0
0
0
0
0
0
0
0
0
0
0
0
0
0
0
0
0
0
0
0
0
0
0
0
0
0
0
0
0
0
0
0
0
0
0
0
0
0
0
0
0
0
0
0
0
0
0
0
0
0
0
0
0
0
0
0
0
0
0
0
0
0
0
0
0
0
0
0
0
0
0
0
0
0
0
0
0
0
0
0
0
0
0
0
0
0
0
0
0
0
0
0
0
0
0
0
0
0
0
0
0
0
0
0
0
0
0
0
0
0
0
0
0
0
0
0
0
0
0
0
0
0
0
0
0
0
0
0
0
0
0
0
0
0
0
0
0
0
0
0
0
0
0
0
0
0
0
0
0
0
0
0
0
0
0
0
0
0
0
0
0
0
0
0
0
0
0
0
0
0
0
0
0
0
0
0
0
0
0
0
0
0
0
0
0
0
0
0
0
0
0
0
0
0
0
0
0
0
0
0
0
0
0
0
0
0
0
0
0
0
0
0
0
0
0
0
0
0
0
0
0
0
0
0
0
0
0
0
0
0
0
0
0
0
0
0
0
0
0
0
0
0
0
0
0
0
0
0
0
0
0
0
0
0
0
0
0
0
0
0
0
0
0
0
0
0
0
0
0
0
0
0
0
0
0
0
0
0
0
0
0
0
0
0
0
0
0
0
0
0
0
0
0
0
0
0
0
0
0
0
0
0
0
0
0
0
0
0
0
0
0
0
0
0
0
0
0
0
0
0
0
0
0
0
0
0
0
0
0
0
0
0
0
0
0
0
0
0
0
0
0
0
0
0
0
0
0
0
0
0
0
0
0
0
0
0
0
0
0
0
0
0
0
0
0
0
0
0
0
0
0
0
0
0
0
0
0
0
0
0
0
0
0
0
0
0
0
0
0
0
0
0
0
0
0
0
0
0
0
0
0
0
0
0
0
0
0
0
0
0
0
0
0
0
0
0
0
0
0
0
0
0
0
0
0
0
0
0
0
0
0
0
0
0
0
0
0
0
0
0
0
0
0
0
0
0
0
0
0
0
0
0
0
0
0
0
0
0
0
0
0
0
0
0
0
0
0
0
0
0
0
0
0
0
0
0
0
0
0
0
0
0
0
0
0
0
0
0
0
0
0
0
0
0
0
0
0
0
0
0
0
0
0
0
0
0
0
0
0
0
0
0
0
0
0
0
0
0
0
0
0
0
0
0
0
0
0
0
0
0
0
0
0
0
0
0
0
0
0
0
0
0
0
0
0
0
0
0
0
0
0
0
0
0
0
0
0
0
0
0
0
0
0
0
0
0
0
0
0
0
0
0
0
0
0
0
0
0
0
0
0
0
0
0
0
0
0
0
0
0
0
0
0
0
0
0
0
0
0
0
0
0
0
0
0
0
0
0
0
0
0
0
0
0
0
0
0
0
0
0
0
0
0
0
0
0
0
0
0
0
0
0
0
0
0
0
0
0
0
0
0
0
0
0
0
0
0
0
0
0
0
0
0
0
0
0
0
0
0
0
0
0
0
0
0
0
0
0
0
0
0
0
0
0
0
0
0
0
0
0
0
0
0
0
0
0
0
0
0
0
0
0
0
0
0
0
0
0
0
0
0
0
0
0
0
0
0
0
0
0
0
0
0
0
0
0
0
0
0
0
0
0
0
0
0
0
0
0
0
0
0
0
0
0
0
0
0
0
0
0
0
0
0
0
0
0
0
0
0
0
0
0
0
0
0
0
0
0
0
0
0
0
0
0
0
0
0
0
0
0
0
0
0
0
0
0
0
0
0
0
0
0
0
0
0
0
0
0
0
0
0
0
0
0
0
0
0
0
0
0
0
0
0
0
0
0
0
0
0
0
0
0
0
0
0
0
0
0
0
0
0
0
0
0
0
0
0
0
0
0
0
0
0
0
0
0
0
0
0
0
0
0
0
0
0
0
0
0
0
0
0
0
0
0
0
0
0
0
0
0
0
0
0
0
0
0
0
0
0
0
0
0
0
0
0
0
0
0
0
0
0
0
0
0
0
0
0
0
0
0
0
0
0
0
0
0
0
0
0
0
0
0
0
0
0
0
0
0
0
0
0
0
0
0
0
0
0
0
0
0
0
0
0
0
0
0
0
0
0
0
0
0
0
0
0
0
0
0
0
0
0
0
0
0
0
0
0
0
0
0
0
0
0
0
0
0
0
0
0
0
0
0
0
0
0
0
0
0
0
0
0
0
0
0
0
0
0
0
0
0
0
0
0
0
0
0
0
0
0
0
0
0
0
0
0
0
0
0
0
0
0
0
0
0
0
0
0
0
0
0
0
0
0
0
0
0
0
0
0
0
0
0
0
0
0
0
0
0
0
0
0
0
0
0
0
0
0
0
0
0
0
0
0
0
0
0
0
0
0
0
0
0
0
0
0
0
0
0
0
0
0
0
0
0
0
0
0
0
0
0
0
0
0
0
0
0
0
0
0
0
0
0
0
0
0
0
0
0
0
0
0
0
0
0
0
0
0
0
0
0
0
0
0
0
0
0
0
0
0
0
0
0
0
0
0
0
0
0
0
0
0
0
0
0
0
0
0
0
0
0
0
0
0
0
0
0
0
0
0
0
0
0
0
0
0
0
0
0
0
0
0
0
0
0
0
0
0
0
0
0
0
0
0
0
0
0
0
0
0
0
0
0
0
0
0
0
0
0
0
0
0
0
0
0
0
0
0
0
0
0
0
0
0
0
0
0
0
0
0
0
0
0
0
0
0
0
0
0
0
0
0
0
0
0
0
0
0
0
0
0
0
0
0
0
0
0
0
0
0
0
0
0
0
0
0
0
0
0
0
0
0
0
0
0
0
0
0
0
0
0
0
0
0
0
0
0
0
0
0
0
0
0
0
0
0
0
0
0
0
0
0
0
0
0
0
0
0
0
0
0
0
0
0
0
0
0
0
0
0
0
0
0
0
0
0
0
0
0
0
0
0
0
0
0
0
0
0
0
0
0
0
0
0
0
0
0

POINT_DATA	1501
SCALARS model double 1
LOOKUP_TABLE table0
-0.0451569
3.4765
-13.4748
-10.0366
-6.14546
0.172329
0.395654
-12.1308
-7.18575
-3.69478
-0.0423277
2.87002
-10.3239
-3.83449
-0.85391
0.104493
-1.33982
-10.3378
-2.50627
1.06949
0.408309
-7.29191
-17.1704
-5.57259
0.55296
-0.826828
-1.29085
-10.8562
-6.22311
-1.2651
-0.531829
0.153553
-3.76432
-3.50188
-2.14475
0.493106
-12.5636
-5.17372
-1.01579
-2.09617
-0.160214
4.92074
3.9908
-0.27744
-5.14601
0.13968
-2.685
-5.15227
-7.97648
-11.8532
-0.439172
3.06718
-3.41381
-1.36039
-0.574174
-0.157882
1.18253
1.13328
2.86054
2.34912
0.948993
-18.1145
6.569
8.85956
6.12946
0.0624464
-1.01701
13.8735
14.5141
9.78806
0.529371
-3.03186
5.05377
13.3968
11.157
-0.912211
3.91432
-1.51085
7.3041
9.36165
-1.46914
-0.0347864
-0.938901
3.27496
6.14863
-0.794583
3.52253
-2.25756
0.4636
2.22667
-0.0207557
-6.99932
-4.8226
-4.2365
-5.16683
-0.0823406
-1.32814
-5.9058
-9.39769
-12.2903
-0.493559
-3.17086
0.527095
1.15769
1.04145
-1.09102
-4.16514
7.93804
5.75899
3.66139
-1.269
17.6653
33.7887
32.3738
38.1599
32.48
36.2858
74.4382
44.6919
29.0213
13.7638
7.31718
-2.95942
10.3425
6.17544
2.76853
6.95434
90.503
11.1642
32.5441
30.6279
40.3289
14.6113
44.4183
97.7311
95.8632
81.5865
80.8239
135.473
102.352
118.48
100.082
97.6622
52.6596
62.5672
35.8731
47.8179