# vtk DataFile Version 3.0
Gravity inversion using rectangular prisms
ASCII
DATASET UNSTRUCTURED_GRID

POINTS	1308	double
0	0	0
0	0	200
0	0	400
0	0	600
0	0	800
0	0	1000
0	200	0
0	200	200
0	200	400
0	200	600
0	200	800
0	200	1000
0	400	0
0	400	200
0	400	400
0	400	600
0	400	800
0	400	1000
0	600	0
0	600	200
0	600	400
0	600	600
0	600	800
0	600	1000
0	800	0
0	800	200
0	800	400
0	800	600
0	800	800
0	800	1000
0	1000	0
0	1000	200
0	1000	400
0	1000	600
0	1000	800
0	1000	1000
0	1200	0
0	1200	200
0	1200	400
0	1200	600
0	1200	800
0	1200	1000
0	1400	0
0	1400	200
0	1400	400
0	1400	600
0	1400	800
0	1400	1000
0	1600	0
0	1600	200
0	1600	400
0	1600	600
0	1600	800
0	1600	1000
0	1800	0
0	1800	200
0	1800	400
0	1800	600
0	1800	800
0	1800	1000
0	2000	0
0	2000	200
0	2000	400
0	2000	600
0	2000	800
0	2000	1000
200	0	0
200	0	200
200	0	400
200	0	600
200	0	800
200	0	1000
200	200	0
200	200	200
200	200	400
200	200	600
200	200	800
200	200	1000
200	400	0
200	400	200
200	400	400
200	400	600
200	400	800
200	400	1000
200	600	0
200	600	200
200	600	400
200	600	600
200	600	800
200	600	1000
200	800	0
200	800	200
200	800	400
200	800	600
200	800	800
200	800	1000
200	1000	0
200	1000	200
200	1000	400
200	1000	600
200	1000	800
200	1000	1000
200	1200	0
200	1200	200
200	1200	400
200	1200	600
200	1200	800
200	1200	1000
200	1400	0
200	1400	200
200	1400	400
200	1400	600
200	1400	800
200	1400	1000
200	1600	0
200	1600	200
200	1600	400
200	1600	600
200	1600	800
200	1600	1000
200	1800	0
200	1800	200
200	1800	400
200	1800	600
200	1800	800
200	1800	1000
200	2000	0
200	2000	200
200	2000	400
200	2000	600
200	2000	800
200	2000	1000
400	0	0
400	0	200
400	0	400
400	0	600
400	0	800
400	0	1000
400	200	0
400	200	200
400	200	400
400	200	600
400	200	800
400	200	1000
400	400	0
400	400	100
400	400	200
400	400	400
400	400	600
400	400	800
400	400	1000
400	500	0
400	500	100
400	500	200
400	600	0
400	600	100
400	600	200
400	600	400
400	600	600
400	600	800
400	600	1000
400	700	0
400	700	100
400	700	200
400	800	0
400	800	100
400	800	200
400	800	400
400	800	600
400	800	800
400	800	1000
400	900	0
400	900	100
400	900	200
400	1000	0
400	1000	100
400	1000	200
400	1000	400
400	1000	600
400	1000	800
400	1000	1000
400	1200	0
400	1200	200
400	1200	400
400	1200	600
400	1200	800
400	1200	1000
400	1400	0
400	1400	200
400	1400	400
400	1400	600
400	1400	800
400	1400	1000
400	1600	0
400	1600	200
400	1600	400
400	1600	600
400	1600	800
400	1600	1000
400	1800	0
400	1800	200
400	1800	400
400	1800	600
400	1800	800
400	1800	1000
400	2000	0
400	2000	200
400	2000	400
400	2000	600
400	2000	800
400	2000	1000
500	400	0
500	400	100
500	400	200
500	500	0
500	500	100
500	500	200
500	600	0
500	600	100
500	600	200
500	700	0
500	700	100
500	700	200
500	800	0
500	800	100
500	800	200
500	900	0
500	900	100
500	900	200
500	1000	0
500	1000	100
500	1000	200
600	0	0
600	0	200
600	0	400
600	0	600
600	0	800
600	0	1000
600	200	0
600	200	100
600	200	200
600	200	400
600	200	600
600	200	800
600	200	1000
600	300	0
600	300	100
600	300	200
600	400	0
600	400	100
600	400	200
600	400	300
600	400	400
600	400	600
600	400	800
600	400	1000
600	500	0
600	500	100
600	500	200
600	500	300
600	500	400
600	600	0
600	600	100
600	600	200
600	600	300
600	600	400
600	600	600
600	600	800
600	600	1000
600	700	0
600	700	100
600	700	200
600	700	300
600	700	400
600	800	0
600	800	100
600	800	200
600	800	300
600	800	400
600	800	600
600	800	800
600	800	1000
600	900	0
600	900	100
600	900	200
600	1000	0
600	1000	100
600	1000	200
600	1000	400
600	1000	600
600	1000	800
600	1000	1000
600	1200	0
600	1200	200
600	1200	400
600	1200	600
600	1200	800
600	1200	1000
600	1400	0
600	1400	100
600	1400	200
600	1400	400
600	1400	600
600	1400	800
600	1400	1000
600	1500	0
600	1500	100
600	1500	200
600	1600	0
600	1600	100
600	1600	200
600	1600	400
600	1600	600
600	1600	800
600	1600	1000
600	1800	0
600	1800	200
600	1800	400
600	1800	600
600	1800	800
600	1800	1000
600	2000	0
600	2000	200
600	2000	400
600	2000	600
600	2000	800
600	2000	1000
700	200	0
700	200	100
700	200	200
700	300	0
700	300	100
700	300	200
700	400	0
700	400	100
700	400	200
700	400	300
700	400	400
700	500	0
700	500	100
700	500	200
700	500	300
700	500	400
700	600	0
700	600	100
700	600	200
700	600	300
700	600	400
700	700	0
700	700	100
700	700	200
700	700	300
700	700	400
700	800	0
700	800	100
700	800	200
700	800	300
700	800	400
700	900	0
700	900	100
700	900	200
700	1000	0
700	1000	100
700	1000	200
700	1400	0
700	1400	100
700	1400	200
700	1500	0
700	1500	100
700	1500	200
700	1600	0
700	1600	100
700	1600	200
800	0	0
800	0	200
800	0	400
800	0	600
800	0	800
800	0	1000
800	200	0
800	200	100
800	200	200
800	200	400
800	200	600
800	200	800
800	200	1000
800	300	0
800	300	100
800	300	200
800	400	0
800	400	100
800	400	200
800	400	300
800	400	400
800	400	600
800	400	800
800	400	1000
800	500	0
800	500	100
800	500	200
800	500	300
800	500	400
800	600	0
800	600	100
800	600	200
800	600	300
800	600	400
800	600	600
800	600	800
800	600	1000
800	700	0
800	700	100
800	700	200
800	700	300
800	700	400
800	800	0
800	800	100
800	800	200
800	800	300
800	800	400
800	800	600
800	800	800
800	800	1000
800	900	0
800	900	100
800	900	200
800	900	300
800	900	400
800	1000	0
800	1000	100
800	1000	200
800	1000	300
800	1000	400
800	1000	600
800	1000	800
800	1000	1000
800	1100	0
800	1100	100
800	1100	200
800	1200	0
800	1200	100
800	1200	200
800	1200	400
800	1200	600
800	1200	800
800	1200	1000
800	1300	0
800	1300	100
800	1300	200
800	1400	0
800	1400	100
800	1400	200
800	1400	400
800	1400	600
800	1400	800
800	1400	1000
800	1500	0
800	1500	100
800	1500	200
800	1600	0
800	1600	100
800	1600	200
800	1600	400
800	1600	600
800	1600	800
800	1600	1000
800	1700	0
800	1700	100
800	1700	200
800	1800	0
800	1800	100
800	1800	200
800	1800	400
800	1800	600
800	1800	800
800	1800	1000
800	2000	0
800	2000	200
800	2000	400
800	2000	600
800	2000	800
800	2000	1000
900	400	0
900	400	100
900	400	200
900	500	0
900	500	100
900	500	200
900	600	0
900	600	100
900	600	200
900	600	300
900	600	400
900	700	0
900	700	100
900	700	200
900	700	300
900	700	400
900	800	0
900	800	100
900	800	200
900	800	300
900	800	400
900	900	0
900	900	100
900	900	200
900	900	300
900	900	400
900	1000	0
900	1000	100
900	1000	200
900	1000	300
900	1000	400
900	1100	0
900	1100	100
900	1100	200
900	1200	0
900	1200	100
900	1200	200
900	1300	0
900	1300	100
900	1300	200
900	1400	0
900	1400	100
900	1400	200
900	1500	0
900	1500	100
900	1500	200
900	1600	0
900	1600	100
900	1600	200
900	1700	0
900	1700	100
900	1700	200
900	1800	0
900	1800	100
900	1800	200
1000	0	0
1000	0	200
1000	0	400
1000	0	600
1000	0	800
1000	0	1000
1000	200	0
1000	200	200
1000	200	400
1000	200	600
1000	200	800
1000	200	1000
1000	400	0
1000	400	100
1000	400	200
1000	400	400
1000	400	600
1000	400	800
1000	400	1000
1000	500	0
1000	500	100
1000	500	200
1000	600	0
1000	600	100
1000	600	200
1000	600	300
1000	600	400
1000	600	600
1000	600	800
1000	600	1000
1000	700	0
1000	700	100
1000	700	200
1000	700	300
1000	700	400
1000	800	0
1000	800	100
1000	800	200
1000	800	300
1000	800	400
1000	800	600
1000	800	800
1000	800	1000
1000	900	0
1000	900	100
1000	900	200
1000	900	300
1000	900	400
1000	1000	0
1000	1000	100
1000	1000	200
1000	1000	300
1000	1000	400
1000	1000	600
1000	1000	800
1000	1000	1000
1000	1100	0
1000	1100	100
1000	1100	200
1000	1200	0
1000	1200	100
1000	1200	200
1000	1200	300
1000	1200	400
1000	1200	600
1000	1200	800
1000	1200	1000
1000	1300	0
1000	1300	100
1000	1300	200
1000	1300	300
1000	1300	400
1000	1400	0
1000	1400	100
1000	1400	200
1000	1400	300
1000	1400	400
1000	1400	600
1000	1400	800
1000	1400	1000
1000	1500	0
1000	1500	100
1000	1500	200
1000	1500	300
1000	1500	400
1000	1600	0
1000	1600	100
1000	1600	200
1000	1600	300
1000	1600	400
1000	1600	600
1000	1600	800
1000	1600	1000
1000	1700	0
1000	1700	100
1000	1700	200
1000	1800	0
1000	1800	100
1000	1800	200
1000	1800	400
1000	1800	600
1000	1800	800
1000	1800	1000
1000	2000	0
1000	2000	200
1000	2000	400
1000	2000	600
1000	2000	800
1000	2000	1000
1100	400	0
1100	400	100
1100	400	200
1100	500	0
1100	500	100
1100	500	200
1100	600	0
1100	600	100
1100	600	200
1100	700	0
1100	700	100
1100	700	200
1100	800	0
1100	800	100
1100	800	200
1100	900	0
1100	900	100
1100	900	200
1100	1000	0
1100	1000	100
1100	1000	200
1100	1100	0
1100	1100	100
1100	1100	200
1100	1200	0
1100	1200	100
1100	1200	200
1100	1200	300
1100	1200	400
1100	1300	0
1100	1300	100
1100	1300	200
1100	1300	300
1100	1300	400
1100	1400	0
1100	1400	100
1100	1400	200
1100	1400	300
1100	1400	400
1100	1500	0
1100	1500	100
1100	1500	200
1100	1500	300
1100	1500	400
1100	1600	0
1100	1600	100
1100	1600	200
1100	1600	300
1100	1600	400
1100	1700	0
1100	1700	100
1100	1700	200
1100	1800	0
1100	1800	100
1100	1800	200
1200	0	0
1200	0	200
1200	0	400
1200	0	600
1200	0	800
1200	0	1000
1200	200	0
1200	200	100
1200	200	200
1200	200	400
1200	200	600
1200	200	800
1200	200	1000
1200	300	0
1200	300	100
1200	300	200
1200	400	0
1200	400	100
1200	400	200
1200	400	300
1200	400	400
1200	400	600
1200	400	800
1200	400	1000
1200	500	0
1200	500	100
1200	500	200
1200	500	300
1200	500	400
1200	600	0
1200	600	100
1200	600	200
1200	600	300
1200	600	400
1200	600	600
1200	600	800
1200	600	1000
1200	700	0
1200	700	100
1200	700	200
1200	700	300
1200	700	400
1200	800	0
1200	800	100
1200	800	200
1200	800	300
1200	800	400
1200	800	600
1200	800	800
1200	800	1000
1200	900	0
1200	900	100
1200	900	200
1200	1000	0
1200	1000	100
1200	1000	200
1200	1000	400
1200	1000	600
1200	1000	800
1200	1000	1000
1200	1100	0
1200	1100	100
1200	1100	200
1200	1200	0
1200	1200	100
1200	1200	200
1200	1200	300
1200	1200	400
1200	1200	600
1200	1200	800
1200	1200	1000
1200	1300	0
1200	1300	100
1200	1300	200
1200	1300	300
1200	1300	400
1200	1400	0
1200	1400	100
1200	1400	200
1200	1400	300
1200	1400	400
1200	1400	600
1200	1400	800
1200	1400	1000
1200	1500	0
1200	1500	100
1200	1500	200
1200	1500	300
1200	1500	400
1200	1600	0
1200	1600	100
1200	1600	200
1200	1600	300
1200	1600	400
1200	1600	600
1200	1600	800
1200	1600	1000
1200	1700	0
1200	1700	100
1200	1700	200
1200	1800	0
1200	1800	100
1200	1800	200
1200	1800	400
[...]
CELL_DATA	850
SCALARS density double 1
LOOKUP_TABLE table0
0.36533
-5.52495
-2.19481
2.48221
3.75411
0.315666
-3.77601
0.569554
3.72546
4.33625
0.0292062
-3.9684
2.95206
4.9381
4.85075
0.2136
-0.409164
4.29128
5.4944
5.02361
0.575462
-9.26091
1.73316
4.89076
4.71952
-0.598769
0.30881
1.49507
3.85109
4.12616
-0.255096
-0.5742
-0.149904
2.66209
3.54441
0.508275
-8.00365
-1.99602
2.01749
3.16853
-0.11548
3.43689
2.47272
2.22085
2.55786
0.0334576
-1.56796
-2.36975
-1.5817
0.0941701
-0.353484
-1.30405
4.28683
4.76687
4.35214
-0.242834
8.00556
7.09209
5.96395
4.91546
0.862139
10.6165
9.65079
7.08495
5.34493
1.39857
21.1878
11.8086
7.67844
5.40638
1.18961
14.5631
11.1029
7.3025
5.00338
-0.676286
8.52928
8.59762
6.21723
4.34376
-1.21277
3.57284
5.10226
4.85111
3.75672
-0.44559
0.740978
1.43816
3.35538
3.30684
-0.00120213
-4.27763
-0.669589
1.79374
2.59463
-0.0876868
-3.13156
-2.892
-0.998992
0.826195
-1.01308
5.63787
5.47273
4.50047
3.73999
-0.497897
10.5116
7.53176
5.49427
4.18364
-2.59304
18.6822
-1.73862
67.3874
-6.04694
81.4003
9.76753
91.9325
18.9971
10.0562
6.38615
4.42106
3.605
51.0745
9.74112
62.2019
25.1444
113.544
31.0963
51.3119
27.156
11.983
6.66724
4.20592
5.47765
58.3637
6.8401
-28.1872
7.05185
84.7451
4.82688
102.338
26.3715
11.8383
6.06121
3.5284
2.90905
16.3996
10.29
5.20015
2.82724
-0.145098
10.863
9.23915
4.99721
2.66022
-1.00294
7.72522
7.34279
5.03608
3.01203
-0.844542
0.824171
3.81954
4.30224
3.24126
-1.10465
6.13609
4.44096
3.22147
2.75336
-0.105209
5.2761
3.8733
3.08763
2.54091
-5.5706
34.6494
-5.00388
53.1051
-2.05709
17.6565
-0.724421
38.2066
9.03642
5.53773
3.81611
2.78307
-1.40904
117.519
27.3644
128.501
7.49705
115.833
44.6297
127.17
50.4491
41.9787
56.8336
46.1241
50.3705
41.9442
55.2293
44.7598
7.22123
4.20563
2.68325
54.9984
187.243
50.7129
189.996
70.0321
180.617
80.577
175.264
65.259
54.2579
63.8392
53.5193
61.2086
51.1714
56.7692
48.5033
7.71242
3.62369
1.95424
43.2305
127.338
2.64785
152.674
57.4579
99.6085
19.1275
118.522
22.3767
6.15779
2.06341
0.738243
8.22053
21.1293
5.6046
1.15672
-0.0980287
4.88036
26.2129
9.01881
2.49931
0.329824
-4.12225
25.4596
-1.00998
6.76721
4.30566
43.056
3.71387
29.4668
25.3588
12.6442
5.11913
1.86316
-0.748535
12.1826
10.8483
6.55393
3.4335
-0.859202
-0.770507
6.56607
6.05304
4.11869
0.87856
2.54711
1.8453
1.50149
1.22239
3.27928
5.57942
2.93598
1.82676
1.1767
6.53079
103.291
36.5006
102.292
0.173138
100.877
9.89949
77.3731
7.96513
3.0934
1.42582
0.600907
63.1946
159.601
64.3678
138.217
29.3621
134.847
29.6645
117.241
41.2884
33.1778
32.6021
28.1205
27.4421
23.6064
16.4502
16.4628
0.60256
-0.551434
-0.832816
50.6501
87.0112
18.1985
88.8021
24.7883
69.3531
12.9777
72.2588
20.0065
18.7522
21.7221
18.0046
5.07458
6.45962
9.88337
7.45424
-4.05171
-3.57563
-2.71833
-1.34348
116.503
-1.55842
117.536
8.71642
61.3374
11.7079
63.5336
7.44601
-3.17074
-4.3713
-3.59112
-1.5987
96.1083
11.8049
191.895
31.82
73.8563
36.3146
158.846
25.8056
4.68711
-1.21966
-2.36638
17.4579
83.1754
11.6506
25.4046
55.5361
124.439
22.3469
120.679
42.2644
13.7871
3.80724
0.403129
4.82252
36.2179
-4.49155
48.3829
16.5933
-10.0723
5.01998
-21.4078
28.2256
15.9766
7.34959
3.20546
0.615198
-1.09088
7.82375
7.32157
4.78867
0.00966053
0.210512
0.191843
0.111098
-0.000466711
0.0672409
0.945859
0.275944
-0.13018
-0.409812
-0.790806
6.29604
1.14309
-7.61923
-3.25353
-49.3849
-17.1573
-33.184
-3.26936
-1.62652
-1.53258
-1.5401
2.63194
6.18635
6.38568
-12.8236
-27.7444
-26.6678
-23.4594
-40.9539
-15.9244
-8.17963
-5.10331
-3.67758
12.7794
-5.65838
9.7266
16.6117
-14.0822
-28.0467
0.544777
-10.0457
-16.7989
-14.3322
-9.14987
-5.97092
13.2627
45.3905
24.2542
48.4735
11.7358
36.5244
25.1553
52.8666
-3.37831
-9.50998
-8.81007
-6.40126
21.8562
170.335
84.1023
182.689
43.4724
185.97
74.5039
185.971
44.6783
37.7355
52.2723
43.9976
44.7104
35.9465
51.9865
42.59
1.06447
-3.77878
-4.1459
70.7777
108.738
49.6899
39.1962
96.2085
101.455
64.4426
-4.563
75.3854
69.5794
62.4793
65.3523
75.1692
68.6571
62.7181
65.4013
12.5435
2.79829
-0.341646
17.0933
42.7376
-1.50392
77.5029
19.2848
77.1781
3.84486
32.9704
35.5219
17.4868
7.6104
3.28545
0.62868
-0.98205
11.1157
8.45824
5.45106
-0.595573
-1.1429
-1.05431
-1.05463
-1.06278
1.38293
-20.2652
0.257757
-43.3384
1.59847
-24.7722
0.427047
-34.5117
-3.36544
-2.15399
-1.94309
-1.86342
-1.405
-106.637
-31.1276
-100.281
-12.1626
-95.9196
-40.6864
-100.4
-27.1679
-16.3263
-31.6302
-20.6305
-30.5133
-21.8719
-37.7125
-27.3232
-6.06774
-4.33107
-3.48574
-44.5711
-169.971
-57.0382
-179.891
-66.4745
-179.136
-56
-189.446
-58.3902
-46.5401
-68.8616
-55.8482
-67.7881
-54.316
-76.6229
-62.3301
-15.2137
-8.84381
-5.95088
-36.6957
-42.6915
-14.4616
-14.8078
-56.9752
-49.8722
-20.0431
-19.6009
-17.9331
-18.339
-12.0724
-7.82851
11.167
8.10117
28.3727
25.5365
7.90373
4.68155
22.0742
24.4246
-4.35917
-10.3804
-9.68456
-7.14163
47.6142
136.168
80.2667
156.98
42.4573
131.36
73.5289
147.875
38.6194
29.5264
48.0393
36.5564
35.5444
26.3724
44.5064
33.1946
0.4124
-3.58702
-3.92177
82.7844
170.041
35.9742
131.72
67.7778
152.202
18.4651
146.171
74.5289
62.3512
69.2982
60.5445
72.624
59.363
75.7333
58.7316
11.3893
3.15616
0.346287
19.9289
40.556
-0.168655
-9.46295
1.12132
134.814
0.507943
24.4444
34.9859
16.659
7.98309
4.13646
0.685596
16.0731
12.9684
9.08567
6.36643
-0.668191
-1.91092
-2.03082
-1.98521
-1.8681
-2.65983
-5.97669
-4.17523
-3.47182
-2.99564
-4.1037
-89.8962
-27.1442
-87.1762
7.6452
-117.446
-1.9003
-127.263
-17.4706
-9.37681
-6.40161
-4.79797
-40.5297
-159.962
-41.8829
-164.213
-4.87978
-172.299
-4.43531
-170.694
-71.952
-56.9509
-77.5452
-61.9098
-73.4267
-56.5496
-72.0238
-56.142
-16.2498
-9.9721
-6.73619
-31.2811
-89.5582
-7.51666
-58.3119
-2.68854
-106.915
-1.09494
-54.864
-18.9131
-14.0646
-10.1326
-7.1201
1.74426
13.7684
12.0597
29.5329
1.47568
12.3424
-0.796248
50.331
-3.11076
-6.23083
-6.19262
-5.08228
23.9894
107.657
45.9402
115.174
2.91122
137.898
9.99078
116.593
33.1858
23.0446
40.7217
29.1619
32.6274
18.6748
36.3577
23.5924
2.30639
-0.712494
-1.5049
36.0254
115.399
18.0896
167.917
22.829
106.692
-6.70871
142.471
26.3895
10.2271
4.72907
2.44685
4.9673
19.051
13.4279
8.46322
5.74509
1.64743
-6.11914
7.8504
8.71569
7.51416
-0.155097
-1.38065
-2.1296
-2.20866
-2.04811
-0.740585
-6.86386
-5.12209
-4.06434
-3.29533
-1.2683
-16.5245
-9.4217
-6.42848
-4.68058
10.3873
-71.6584
7.89395
-76.9068
3.18799
-28.4141
5.59172
-38.0312
-12.8493
-9.24853
-6.99956
-5.16081
-0.946509
-4.79614
-4.58476
-4.43212
-3.77615
0.686677
-0.203615
-0.448201
-0.836771
-1.0538
-6.36372
74.7249
1.11788
45.2973
-3.78103
27.8924
-0.996568
37.6907
6.76269
4.07858
2.9708
2.15994
4.17516
14.1057
8.93771
6.74696
5.3595
1.64373
10.7825
10.6479
9.20609
7.90354
1.08738
-3.90853
4.07653
8.36673
9.01223
-0.484516
5.86683
2.05641
-0.237597
-0.838839
0.067171
-1.43056
-1.81406
-2.11446
-1.89824
0.299824
-3.8742
-3.78889
-3.07504
-2.37508
0.0114656
-2.38544
-1.56647
-1.53011
-1.39048
-0.265067
0.189742
1.07981
1.1829
0.851953
0.281007
1.56682
3.15427
3.75492
3.47265
0.0411174
5.11043
6.00574
6.45779
6.13901
-0.202124
5.35603
8.76862
9.13359
8.68021
-0.315043
2.20201
8.55595
10.5379
10.5837
0.240238
-7.17934
0.994904
8.80519
11.1484

