# vtk DataFile Version 3.0
Gravity effects
ASCII
DATASET UNSTRUCTURED_GRID

POINTS	1681	double
0	0	-0.1
50	0	-0.1
100	0	-0.1
150	0	-0.1
200	0	-0.1
250	0	-0.1
300	0	-0.1
350	0	-0.1
400	0	-0.1
450	0	-0.1
500	0	-0.1
550	0	-0.1
600	0	-0.1
650	0	-0.1
700	0	-0.1
750	0	-0.1
800	0	-0.1
850	0	-0.1
900	0	-0.1
950	0	-0.1
1000	0	-0.1
1050	0	-0.1
1100	0	-0.1
1150	0	-0.1
1200	0	-0.1
1250	0	-0.1
1300	0	-0.1
1350	0	-0.1
1400	0	-0.1
1450	0	-0.1
1500	0	-0.1
1550	0	-0.1
1600	0	-0.1
1650	0	-0.1
1700	0	-0.1
1750	0	-0.1
1800	0	-0.1
1850	0	-0.1
1900	0	-0.1
1950	0	-0.1
2000	0	-0.1
0	50	-0.1
50	50	-0.1
100	50	-0.1
150	50	-0.1
200	50	-0.1
250	50	-0.1
300	50	-0.1
350	50	-0.1
400	50	-0.1
450	50	-0.1
500	50	-0.1
550	50	-0.1
600	50	-0.1
650	50	-0.1
700	50	-0.1
750	50	-0.1
800	50	-0.1
850	50	-0.1
900	50	-0.1
950	50	-0.1
1000	50	-0.1
1050	50	-0.1
1100	50	-0.1
1150	50	-0.1
1200	50	-0.1
1250	50	-0.1
1300	50	-0.1
1350	50	-0.1
1400	50	-0.1
1450	50	-0.1
1500	50	-0.1
1550	50	-0.1
1600	50	-0.1
1650	50	-0.1
1700	50	-0.1
1750	50	-0.1
1800	50	-0.1
1850	50	-0.1
1900	50	-0.1
1950	50	-0.1
2000	50	-0.1
0	100	-0.1
50	100	-0.1
100	100	-0.1
150	100	-0.1
200	100	-0.1
250	100	-0.1
300	100	-0.1
350	100	-0.1
400	100	-0.1
450	100	-0.1
500	100	-0.1
550	100	-0.1
600	100	-0.1
650	100	-0.1
700	100	-0.1
750	100	-0.1
800	100	-0.1
850	100	-0.1
900	100	-0.1
950	100	-0.1
1000	100	-0.1
1050	100	-0.1
1100	100	-0.1
1150	100	-0.1
1200	100	-0.1
1250	100	-0.1
1300	100	-0.1
1350	100	-0.1
1400	100	-0.1
1450	100	-0.1
1500	100	-0.1
1550	100	-0.1
1600	100	-0.1
1650	100	-0.1
1700	100	-0.1
1750	100	-0.1
1800	100	-0.1
1850	100	-0.1
1900	100	-0.1
1950	100	-0.1
2000	100	-0.1
0	150	-0.1
50	150	-0.1
100	150	-0.1
150	150	-0.1
200	150	-0.1
250	150	-0.1
300	150	-0.1
350	150	-0.1
400	150	-0.1
450	150	-0.1
500	150	-0.1
550	150	-0.1
600	150	-0.1
650	150	-0.1
700	150	-0.1
750	150	-0.1
800	150	-0.1
850	150	-0.1
900	150	-0.1
950	150	-0.1
1000	150	-0.1
1050	150	-0.1
1100	150	-0.1
1150	150	-0.1
1200	150	-0.1
1250	150	-0.1
1300	150	-0.1
1350	150	-0.1
1400	150	-0.1
1450	150	-0.1
1500	150	-0.1
1550	150	-0.1
1600	150	-0.1
1650	150	-0.1
1700	150	-0.1
1750	150	-0.1
1800	150	-0.1
1850	150	-0.1
1900	150	-0.1
1950	150	-0.1
2000	150	-0.1
0	200	-0.1
50	200	-0.1
100	200	-0.1
150	200	-0.1
200	200	-0.1
250	200	-0.1
300	200	-0.1
350	200	-0.1
400	200	-0.1
450	200	-0.1
500	200	-0.1
550	200	-0.1
600	200	-0.1
650	200	-0.1
700	200	-0.1
750	200	-0.1
800	200	-0.1
850	200	-0.1
900	200	-0.1
950	200	-0.1
1000	200	-0.1
1050	200	-0.1
1100	200	-0.1
1150	200	-0.1
1200	200	-0.1
1250	200	-0.1
1300	200	-0.1
1350	200	-0.1
1400	200	-0.1
1450	200	-0.1
1500	200	-0.1
1550	200	-0.1
1600	200	-0.1
1650	200	-0.1
1700	200	-0.1
1750	200	-0.1
1800	200	-0.1
1850	200	-0.1
1900	200	-0.1
1950	200	-0.1
2000	200	-0.1
0	250	-0.1
50	250	-0.1
100	250	-0.1
150	250	-0.1
200	250	-0.1
250	250	-0.1
300	250	-0.1
350	250	-0.1
400	250	-0.1
450	250	-0.1
500	250	-0.1
550	250	-0.1
600	250	-0.1
650	250	-0.1
700	250	-0.1
750	250	-0.1
800	250	-0.1
850	250	-0.1
900	250	-0.1
950	250	-0.1
1000	250	-0.1
1050	250	-0.1
1100	250	-0.1
1150	250	-0.1
1200	250	-0.1
1250	250	-0.1
1300	250	-0.1
1350	250	-0.1
1400	250	-0.1
1450	250	-0.1
1500	250	-0.1
1550	250	-0.1
1600	250	-0.1
1650	250	-0.1
1700	250	-0.1
1750	250	-0.1
1800	250	-0.1
1850	250	-0.1
1900	250	-0.1
1950	250	-0.1
2000	250	-0.1
0	300	-0.1
50	300	-0.1
100	300	-0.1
150	300	-0.1
200	300	-0.1
250	300	-0.1
300	300	-0.1
350	300	-0.1
400	300	-0.1
450	300	-0.1
500	300	-0.1
550	300	-0.1
600	300	-0.1
650	300	-0.1
700	300	-0.1
750	300	-0.1
800	300	-0.1
850	300	-0.1
900	300	-0.1
950	300	-0.1
1000	300	-0.1
1050	300	-0.1
1100	300	-0.1
1150	300	-0.1
1200	300	-0.1
1250	300	-0.1
1300	300	-0.1
1350	300	-0.1
1400	300	-0.1
1450	300	-0.1
1500	300	-0.1
1550	300	-0.1
1600	300	-0.1
1650	300	-0.1
1700	300	-0.1
1750	300	-0.1
1800	300	-0.1
1850	300	-0.1
1900	300	-0.1
1950	300	-0.1
2000	300	-0.1
0	350	-0.1
50	350	-0.1
100	350	-0.1
150	350	-0.1
200	350	-0.1
250	350	-0.1
300	350	-0.1
350	350	-0.1
400	350	-0.1
450	350	-0.1
500	350	-0.1
550	350	-0.1
600	350	-0.1
650	350	-0.1
700	350	-0.1
750	350	-0.1
800	350	-0.1
850	350	-0.1
900	350	-0.1
950	350	-0.1
1000	350	-0.1
1050	350	-0.1
1100	350	-0.1
1150	350	-0.1
1200	350	-0.1
1250	350	-0.1
1300	350	-0.1
1350	350	-0.1
1400	350	-0.1
1450	350	-0.1
1500	350	-0.1
1550	350	-0.1
1600	350	-0.1
1650	350	-0.1
1700	350	-0.1
1750	350	-0.1
1800	350	-0.1
1850	350	-0.1
1900	350	-0.1
1950	350	-0.1
2000	350	-0.1
0	400	-0.1
50	400	-0.1
100	400	-0.1
150	400	-0.1
200	400	-0.1
250	400	-0.1
300	400	-0.1
350	400	-0.1
400	400	-0.1
450	400	-0.1
500	400	-0.1
550	400	-0.1
600	400	-0.1
650	400	-0.1
700	400	-0.1
750	400	-0.1
800	400	-0.1
850	400	-0.1
900	400	-0.1
950	400	-0.1
1000	400	-0.1
1050	400	-0.1
1100	400	-0.1
1150	400	-0.1
1200	400	-0.1
1250	400	-0.1
1300	400	-0.1
1350	400	-0.1
1400	400	-0.1
1450	400	-0.1
1500	400	-0.1
1550	400	-0.1
1600	400	-0.1
1650	400	-0.1
1700	400	-0.1
1750	400	-0.1
1800	400	-0.1
1850	400	-0.1
1900	400	-0.1
1950	400	-0.1
2000	400	-0.1
0	450	-0.1
50	450	-0.1
100	450	-0.1
150	450	-0.1
200	450	-0.1
250	450	-0.1
300	450	-0.1
350	450	-0.1
400	450	-0.1
450	450	-0.1
500	450	-0.1
550	450	-0.1
600	450	-0.1
650	450	-0.1
700	450	-0.1
750	450	-0.1
800	450	-0.1
850	450	-0.1
900	450	-0.1
950	450	-0.1
1000	450	-0.1
1050	450	-0.1
1100	450	-0.1
1150	450	-0.1
1200	450	-0.1
1250	450	-0.1
1300	450	-0.1
1350	450	-0.1
1400	450	-0.1
1450	450	-0.1
1500	450	-0.1
1550	450	-0.1
1600	450	-0.1
1650	450	-0.1
1700	450	-0.1
1750	450	-0.1
1800	450	-0.1
1850	450	-0.1
1900	450	-0.1
1950	450	-0.1
2000	450	-0.1
0	500	-0.1
50	500	-0.1
100	500	-0.1
150	500	-0.1
200	500	-0.1
250	500	-0.1
300	500	-0.1
350	500	-0.1
400	500	-0.1
450	500	-0.1
500	500	-0.1
550	500	-0.1
600	500	-0.1
650	500	-0.1
700	500	-0.1
750	500	-0.1
800	500	-0.1
850	500	-0.1
900	500	-0.1
950	500	-0.1
1000	500	-0.1
1050	500	-0.1
1100	500	-0.1
1150	500	-0.1
1200	500	-0.1
1250	500	-0.1
1300	500	-0.1
1350	500	-0.1
1400	500	-0.1
1450	500	-0.1
1500	500	-0.1
1550	500	-0.1
1600	500	-0.1
1650	500	-0.1
1700	500	-0.1
1750	500	-0.1
1800	500	-0.1
1850	500	-0.1
1900	500	-0.1
1950	500	-0.1
2000	500	-0.1
0	550	-0.1
50	550	-0.1
100	550	-0.1
150	550	-0.1
200	550	-0.1
250	550	-0.1
300	550	-0.1
350	550	-0.1
400	550	-0.1
450	550	-0.1
500	550	-0.1
550	550	-0.1
600	550	-0.1
650	550	-0.1
700	550	-0.1
750	550	-0.1
800	550	-0.1
850	550	-0.1
900	550	-0.1
950	550	-0.1
1000	550	-0.1
1050	550	-0.1
1100	550	-0.1
1150	550	-0.1
1200	550	-0.1
1250	550	-0.1
1300	550	-0.1
1350	550	-0.1
1400	550	-0.1
1450	550	-0.1
1500	550	-0.1
1550	550	-0.1
1600	550	-0.1
1650	550	-0.1
1700	550	-0.1
1750	550	-0.1
1800	550	-0.1
1850	550	-0.1
1900	550	-0.1
1950	550	-0.1
2000	550	-0.1
0	600	-0.1
50	600	-0.1
100	600	-0.1
150	600	-0.1
200	600	-0.1
250	600	-0.1
300	600	-0.1
350	600	-0.1
400	600	-0.1
450	600	-0.1
500	600	-0.1
550	600	-0.1
600	600	-0.1
650	600	-0.1
700	600	-0.1
750	600	-0.1
800	600	-0.1
850	600	-0.1
900	600	-0.1
950	600	-0.1
1000	600	-0.1
1050	600	-0.1
1100	600	-0.1
1150	600	-0.1
1200	600	-0.1
1250	600	-0.1
1300	600	-0.1
1350	600	-0.1
1400	600	-0.1
1450	600	-0.1
1500	600	-0.1
1550	600	-0.1
1600	600	-0.1
1650	600	-0.1
1700	600	-0.1
1750	600	-0.1
1800	600	-0.1
1850	600	-0.1
1900	600	-0.1
1950	600	-0.1
2000	600	-0.1
0	650	-0.1
50	650	-0.1
100	650	-0.1
150	650	-0.1
200	650	-0.1
250	650	-0.1
300	650	-0.1
350	650	-0.1
400	650	-0.1
450	650	-0.1
500	650	-0.1
550	650	-0.1
600	650	-0.1
650	650	-0.1
700	650	-0.1
750	650	-0.1
800	650	-0.1
850	650	-0.1
900	650	-0.1
950	650	-0.1
1000	650	-0.1
1050	650	-0.1
1100	650	-0.1
1150	650	-0.1
1200	650	-0.1
1250	650	-0.1
1300	650	-0.1
1350	650	-0.1
1400	650	-0.1
1450	650	-0.1
1500	650	-0.1
1550	650	-0.1
1600	650	-0.1
1650	650	-0.1
1700	650	-0.1
1750	650	-0.1
1800	650	-0.1
1850	650	-0.1
1900	650	-0.1
1950	650	-0.1
2000	650	-0.1
0	700	-0.1
50	700	-0.1
100	700	-0.1
150	700	-0.1
200	700	-0.1
250	700	-0.1
300	700	-0.1
350	700	-0.1
400	700	-0.1
450	700	-0.1
500	700	-0.1
550	700	-0.1
600	700	-0.1
650	700	-0.1
700	700	-0.1
750	700	-0.1
800	700	-0.1
850	700	-0.1
900	700	-0.1
950	700	-0.1
1000	700	-0.1
1050	700	-0.1
1100	700	-0.1
1150	700	-0.1
1200	700	-0.1
1250	700	-0.1
1300	700	-0.1
1350	700	-0.1
1400	700	-0.1
1450	700	-0.1
1500	700	-0.1
1550	700	-0.1
1600	700	-0.1
1650	700	-0.1
1700	700	-0.1
1750	700	-0.1
1800	700	-0.1
1850	700	-0.1
1900	700	-0.1
1950	700	-0.1
2000	700	-0.1
0	750	-0.1
50	750	-0.1
100	750	-0.1
150	750	-0.1
200	750	-0.1
250	750	-0.1
300	750	-0.1
350	750	-0.1
400	750	-0.1
450	750	-0.1
500	750	-0.1
550	750	-0.1
600	750	-0.1
650	750	-0.1
700	750	-0.1
750	750	-0.1
800	750	-0.1
850	750	-0.1
900	750	-0.1
950	750	-0.1
1000	750	-0.1
1050	750	-0.1
1100	750	-0.1
1150	750	-0.1
1200	750	-0.1
1250	750	-0.1
1300	750	-0.1
1350	750	-0.1
1400	750	-0.1
1450	750	-0.1
1500	750	-0.1
1550	750	-0.1
1600	750	-0.1
1650	750	-0.1
1700	750	-0.1
1750	750	-0.1
1800	750	-0.1
1850	750	-0.1
1900	750	-0.1
1950	750	-0.1
2000	750	-0.1
0	800	-0.1
50	800	-0.1
100	800	-0.1
150	800	-0.1
200	800	-0.1
250	800	-0.1
300	800	-0.1
350	800	-0.1
400	800	-0.1
450	800	-0.1
500	800	-0.1
550	800	-0.1
600	800	-0.1
650	800	-0.1
700	800	-0.1
750	800	-0.1
800	800	-0.1
850	800	-0.1
900	800	-0.1
950	800	-0.1
1000	800	-0.1
1050	800	-0.1
1100	800	-0.1
1150	800	-0.1
1200	800	-0.1
1250	800	-0.1
1300	800	-0.1
1350	800	-0.1
1400	800	-0.1
1450	800	-0.1
1500	800	-0.1
1550	800	-0.1
1600	800	-0.1
1650	800	-0.1
1700	800	-0.1
1750	800	-0.1
1800	800	-0.1
1850	800	-0.1
1900	800	-0.1
1950	800	-0.1
2000	800	-0.1
0	850	-0.1
50	850	-0.1
100	850	-0.1
150	850	-0.1
200	850	-0.1
250	850	-0.1
300	850	-0.1
350	850	-0.1
400	850	-0.1
450	850	-0.1
500	850	-0.1
550	850	-0.1
600	850	-0.1
650	850	-0.1
700	850	-0.1
750	850	-0.1
800	850	-0.1
850	850	-0.1
900	850	-0.1
950	850	-0.1
1000	850	-0.1
1050	850	-0.1
1100	850	-0.1
1150	850	-0.1
1200	850	-0.1
1250	850	-0.1
1300	850	-0.1
1350	850	-0.1
1400	850	-0.1
1450	850	-0.1
1500	850	-0.1
1550	850	-0.1
1600	850	-0.1
1650	850	-0.1
1700	850	-0.1
1750	850	-0.1
1800	850	-0.1
1850	850	-0.1
1900	850	-0.1
1950	850	-0.1
2000	850	-0.1
0	900	-0.1
50	900	-0.1
100	900	-0.1
150	900	-0.1
200	900	-0.1
250	900	-0.1
300	900	-0.1
350	900	-0.1
[...]
CELL_DATA	1681
SCALARS T_zz double 1
LOOKUP_TABLE table0
-0.446066
-0.468982
-0.494668
-0.520491
-0.541541
-0.558005
-0.570177
-0.573599
-0.577122
-0.57505
-0.561722
-0.546384
-0.528721
-0.508986
-0.487716
-0.464984
-0.440521
-0.41537
-0.390461
-0.365315
-0.341405
-0.317933
-0.293387
-0.267565
-0.239395
-0.208563
-0.175762
-0.142213
-0.106205
-0.0700125
-0.0361231
-0.00337452
0.0258343
0.0503906
0.0700084
0.0841915
0.0930151
0.0972385
0.0975145
0.0938381
0.087645
-0.476521
-0.499688
-0.527828
-0.555829
-0.575086
-0.588083
-0.597444
-0.595166
-0.598342
-0.593942
-0.569224
-0.542438
-0.513779
-0.4849
-0.457753
-0.432864
-0.409642
-0.389805
-0.374594
-0.362166
-0.354243
-0.347873
-0.339186
-0.327694
-0.311237
-0.288485
-0.259746
-0.226712
-0.18558
-0.140699
-0.0969288
-0.0518484
-0.0101153
0.0261571
0.0562835
0.0788842
0.0936782
0.101929
0.104871
0.102425
0.0971662
-0.512851
-0.539454
-0.56986
-0.598438
-0.616201
-0.625331
-0.628234
-0.616727
-0.607657
-0.587821
-0.544909
-0.49855
-0.451005
-0.406158
-0.368136
-0.339549
-0.321026
-0.313827
-0.318047
-0.331027
-0.35308
-0.378524
-0.400773
-0.417934
-0.42642
-0.422107
-0.403364
-0.372835
-0.32805
-0.272875
-0.212226
-0.146149
-0.0826157
-0.0261128
0.0214667
0.0582518
0.0838836
0.0998735
0.107904
0.108398
0.104443
-0.552988
-0.584055
-0.616392
-0.643352
-0.655675
-0.655877
-0.646805
-0.620213
-0.59199
-0.547522
-0.474283
-0.394105
-0.313104
-0.239339
-0.181022
-0.145655
-0.137256
-0.15512
-0.195864
-0.255953
-0.333632
-0.416844
-0.493282
-0.561355
-0.617605
-0.650396
-0.651244
-0.626208
-0.57744
-0.506261
-0.416541
-0.313997
-0.213275
-0.122815
-0.0462209
0.0140367
0.0575607
0.0863704
0.103018
0.10886
0.107842
-0.584514
-0.610171
-0.643706
-0.666674
-0.681204
-0.678364
-0.649544
-0.597773
-0.532355
-0.440829
-0.315054
-0.176192
-0.0361595
0.0890428
0.181124
0.226678
0.21327
0.145883
0.0396907
-0.104544
-0.273565
-0.449653
-0.620515
-0.776848
-0.929298
-1.04311
-1.08066
-1.06723
-1.00734
-0.901348
-0.761502
-0.596908
-0.432325
-0.284469
-0.159631
-0.0610692
0.010824
0.0595914
0.0898119
0.104247
0.107508
-0.613287
-0.632463
-0.665761
-0.682594
-0.695799
-0.683896
-0.625305
-0.532539
-0.406646
-0.236464
-0.0191591
0.221044
0.460549
0.67087
0.819777
0.885543
0.846322
0.703574
0.480058
0.183402
-0.151245
-0.494345
-0.829202
-1.13407
-1.4303
-1.66992
-1.79206
-1.81946
-1.74109
-1.56633
-1.33191
-1.05887
-0.786971
-0.544041
-0.340494
-0.180949
-0.0650031
0.0140597
0.0644985
0.0917526
0.101961
-0.645313
-0.665725
-0.696663
-0.705545
-0.702967
-0.664559
-0.564591
-0.409867
-0.194569
0.0983031
0.470674
0.88478
1.32166
1.70379
1.93768
2.0278
1.9288
1.64352
1.23274
0.688528
0.0806419
-0.540049
-1.1637
-1.72858
-2.27089
-2.73043
-2.98737
-3.07306
-2.96054
-2.66087
-2.2613
-1.80818
-1.34829
-0.94033
-0.612805
-0.359981
-0.178578
-0.0557075
0.0231773
0.0683947
0.0895469
-0.668875
-0.687392
-0.713498
-0.712598
-0.691883
-0.621453
-0.467369
-0.225919
0.120905
0.602564
1.22348
1.92682
2.68368
3.34648
3.74118
3.87563
3.66835
3.14701
2.43251
1.50382
0.471441
-0.584986
-1.65835
-2.6434
-3.57778
-4.36698
-4.81614
-4.96874
-4.80162
-4.32294
-3.66006
-2.91256
-2.16352
-1.50814
-0.993883
-0.605323
-0.332675
-0.150864
-0.0343523
0.034528
0.0701946
-0.697392
-0.722811
-0.741694
-0.728682
-0.674706
-0.553834
-0.330659
0.0283648
0.565965
1.32657
2.37224
3.5751
4.89278
6.05034
6.85881
7.21617
6.78428
5.85889
4.50425
2.82667
1.1155
-0.630284
-2.4292
-4.12445
-5.7239
-7.04245
-7.90224
-8.28462
-7.98129
-7.23627
-6.03511
-4.67426
-3.40759
-2.29616
-1.50405
-0.919431
-0.526812
-0.2703
-0.106657
-0.00842066
0.0443981
-0.723878
-0.755148
-0.765074
-0.737135
-0.645452
-0.46625
-0.156316
0.360113
1.16185
2.30838
3.91768
5.8041
7.90433
9.70187
10.9085
11.4389
10.8175
9.48633
7.3111
4.60808
1.95817
-0.708736
-3.45139
-6.10497
-8.66096
-10.6831
-11.882
-12.3467
-11.8606
-10.8592
-9.09419
-7.02281
-5.06843
-3.32721
-2.14644
-1.3075
-0.763044
-0.413675
-0.193182
-0.0605874
0.0119969
-0.741115
-0.767659
-0.768345
-0.723462
-0.601803
-0.369079
0.0417096
0.748445
1.86581
3.4923
5.75284
8.46153
12.0629
15.0963
17.0426
18.0871
16.8536
14.6921
11.3164
7.078
3.13612
-0.785329
-4.7357
-8.6357
-12.9175
-16.2677
-18.4636
-19.6081
-18.2727
-16.4456
-13.4405
-9.88468
-7.10399
-4.56837
-2.8914
-1.76167
-1.03519
-0.575558
-0.290737
-0.12075
-0.0264485
-0.762091
-0.786062
-0.779172
-0.717893
-0.565036
-0.277005
0.232249
1.118
2.54422
4.71868
7.82156
11.5264
16.6407
20.8394
23.4622
24.9253
22.9272
19.8525
15.3722
9.73176
4.50247
-0.82686
-6.25601
-11.5598
-17.4466
-21.9355
-25.0814
-26.9644
-24.8584
-22.2812
-18.0891
-13.0424
-9.35401
-5.92152
-3.68071
-2.22762
-1.30903
-0.738597
-0.390329
-0.183707
-0.0684577
-0.779785
-0.798072
-0.786643
-0.712288
-0.537321
-0.206614
0.391608
1.409
3.10051
5.86254
9.80184
14.4082
20.8843
26.0824
29.5581
31.5755
29.1686
25.6663
19.4947
12.0673
5.84432
-0.894828
-7.50434
-14.0597
-21.7177
-27.1764
-31.1559
-33.9113
-31.1311
-27.6567
-22.3487
-16.021
-11.4233
-7.08888
-4.3385
-2.6038
-1.53053
-0.884608
-0.4835
-0.245281
-0.112011
-0.796628
-0.811145
-0.798322
-0.715964
-0.526945
-0.167155
0.494405
1.59422
3.46441
6.67308
11.2424
16.4917
24.0551
30.0733
34.3974
37.0117
34.1671
30.2634
22.6225
13.7416
6.85376
-0.979353
-8.32257
-15.6663
-24.8218
-31.0985
-35.9491
-39.7374
-36.3461
-32.024
-25.697
-18.2108
-12.9033
-7.8804
-4.78478
-2.87358
-1.69993
-1.00367
-0.563052
-0.301251
-0.154797
-0.815412
-0.832895
-0.821326
-0.736855
-0.543792
-0.172589
0.50652
1.64055
3.53243
6.8363
11.6723
17.1865
24.9844
31.1675
35.3493
37.7117
34.7559
30.7559
23.0246
14.0618
7.06153
-1.01895
-8.74266
-16.2801
-25.905
-32.6222
-36.7489
-39.94
-36.8024
-32.5714
-26.4161
-19.0367
-13.448
-8.19025
-4.97878
-3.01413
-1.81159
-1.08596
-0.621096
-0.346662
-0.193851
-0.829623
-0.850937
-0.843186
-0.763247
-0.581305
-0.225742
0.431573
1.54353
3.34527
6.44347
10.9713
16.1681
23.9063
30.1413
34.111
36.3039
33.5463
29.7935
22.1783
13.3474
6.64099
-1.02186
-8.44194
-15.8208
-25.5884
-32.5213
-35.9007
-38.4079
-35.5291
-31.4783
-25.5677
-18.4823
-13.0071
-7.9148
-4.85348
-2.98046
-1.82628
-1.11343
-0.64901
-0.376751
-0.226296
-0.842696
-0.871525
-0.870451
-0.802085
-0.63844
-0.317366
0.275478
1.2931
2.96381
5.67093
9.62656
14.2492
20.7519
26.003
29.4598
31.2908
28.8951
25.6331
19.2595
11.7307
5.71244
-0.995484
-7.53584
-13.9273
-21.7607
-27.4397
-30.8277
-33.3384
-30.8783
-27.4775
-22.5057
-16.3113
-11.5544
-7.21587
-4.49853
-2.79226
-1.7449
-1.09197
-0.658043
-0.40403
-0.258279
-0.853596
-0.891264
-0.899677
-0.848236
-0.71245
-0.443055
0.0519811
0.911149
2.34474
4.52216
7.74571
11.5897
16.6055
20.6961
23.6429
25.2102
23.2671
20.5936
15.6115
9.61117
4.58406
-0.857163
-6.19096
-11.1794
-16.9951
-21.5236
-24.8576
-27.3187
-25.1809
-22.3134
-18.3547
-13.2938
-9.5074
-6.15662
-3.92321
-2.45919
-1.57433
-1.02345
-0.644955
-0.421887
-0.286938
-0.861339
-0.906548
-0.926659
-0.894941
-0.79403
-0.585772
-0.198725
0.468998
1.57061
3.19019
5.48722
8.26185
11.8469
14.8457
16.9475
18.0043
16.6722
14.6764
11.2791
7.08625
3.33086
-0.646769
-4.56672
-8.34712
-12.5203
-15.7631
-18.1805
-19.7986
-18.4643
-16.4736
-13.5893
-9.9445
-7.19784
-4.87377
-3.22213
-2.0885
-1.3746
-0.918024
-0.611029
-0.426072
-0.31069
-0.86953
-0.923174
-0.956147
-0.94495
-0.877876
-0.72763
-0.445716
0.0323098
0.815564
1.95093
3.48668
5.33709
7.50091
9.36123
10.6057
11.1462
10.3958
9.05699
7.26091
4.89985
2.41031
-0.172028
-2.80948
-5.43934
-7.86373
-9.7095
-11.2241
-12.0541
-11.5367
-10.47
-8.80094
-6.68882
-4.96204
-3.58986
-2.49286
-1.69822
-1.16636
-0.810837
-0.579551
-0.434596
-0.338447
-0.870044
-0.924666
-0.970267
-0.978636
-0.952574
-0.863721
-0.67225
-0.352253
0.167728
0.914467
1.91633
3.12128
4.47239
5.68964
6.65283
7.19827
6.87707
6.13945
5.13892
3.73823
2.20862
0.674092
-0.884812
-2.5347
-4.14356
-5.51495
-6.61863
-7.17465
-6.96031
-6.36465
-5.38169
-4.16051
-3.16436
-2.38422
-1.7492
-1.26975
-0.933363
-0.698339
-0.538358
-0.432321
-0.361661
-0.867468
-0.921611
-0.978149
-1.00384
-1.01508
-0.9799
-0.860621
-0.65909
-0.331641
0.133869
0.748625
1.4978
2.25281
2.96709
3.63383
4.11685
4.21803
4.11725
3.93521
3.44983
2.72021
1.99014
1.24271
0.36916
-0.482859
-1.35061
-2.01279
-2.32249
-2.53275
-2.55216
-2.3355
-1.99491
-1.62776
-1.31719
-1.07077
-0.873069
-0.714806
-0.590559
-0.497956
-0.429714
-0.384119
-0.86566
-0.92387
-0.988556
-1.02872
-1.06346
-1.06467
-1.00122
-0.884977
-0.689603
-0.408814
-0.0303361
0.444621
0.958733
1.49804
2.06476
2.6421
3.1013
3.54338
4.0239
4.24977
4.37807
4.39105
4.12055
3.76493
3.38141
2.88122
2.35398
1.91084
1.39623
0.893977
0.491045
0.141633
-0.131381
-0.326057
-0.43866
-0.499266
-0.512338
-0.496053
-0.469246
-0.438197
-0.410465
-0.855315
-0.914021
-0.983668
-1.03541
-1.09012
-1.12154
-1.10151
-1.04649
-0.940148
-0.772727
-0.527106
-0.196893
0.219547
0.722806
1.31148
2.08466
2.98135
3.99954
5.12044
6.0395
7.04861
7.79523
7.87868
7.82905
7.68671
7.37985
6.90979
6.32403
5.50879
4.51326
3.45134
2.35985
1.40553
0.677708
0.192995
-0.128827
-0.312173
-0.401904
-0.438896
-0.443746
-0.433506
-0.844925
-0.907949
-0.979762
-1.04022
-1.1025
-1.14951
-1.16265
-1.1512
-1.09695
-0.990277
-0.814052
-0.544946
-0.160257
0.380139
1.14051
2.25931
3.79886
5.54732
7.84839
10.0276
11.869
13.3625
13.9606
14.1705
14.4344
14.4436
13.6291
12.6971
11.1726
9.23538
7.12349
4.82772
3.06228
1.7157
0.830872
0.24322
-0.11535
-0.311435
-0.408738
-0.446848
-0.453762
-0.832956
-0.899387
-0.971576
-1.03762
-1.10254
-1.15766
-1.19284
-1.2085
-1.18338
-1.10871
-0.96778
-0.716869
-0.30897
0.333845
1.3359
2.86432
5.08958
7.54956
10.922
14.2062
16.7402
18.8867
19.9531
20.3369
20.7994
20.9139
19.6803
18.4888
16.4982
13.9101
10.9573
7.53295
4.88762
2.80886
1.46526
0.597166
0.0647621
-0.232157
-0.384277
-0.451633
-0.473393
-0.817806
-0.882024
-0.953814
-1.0221
-1.09226
-1.15562
-1.20152
-1.22937
-1.21758
-1.1582
-1.03114
-0.778361
-0.33889
0.416092
1.64542
3.55093
6.67982
10.0199
14.6039
19.004
22.7645
26.1082
27.8058
28.6835
28.7067
28.3339
27.2175
26.3589
23.2388
19.2925
15.1473
10.3051
6.78965
3.85504
2.02359
0.888914
0.205618
-0.172963
-0.370744
-0.461564
-0.494001
-0.807577
-0.871407
-0.942532
-1.00995
-1.07972
-1.14429
-1.19367
-1.22682
-1.22154
-1.16987
-1.04871
-0.789705
-0.326204
0.510408
1.90487
4.09072
8.0072
12.148
17.9129
23.2782
27.8725
31.9906
34.1002
35.4611
35.1628
34.4561
33.555
32.9731
28.6636
23.3113
18.0585
12.1527
8.11911
4.5741
2.40306
1.08368
0.294066
-0.141088
-0.370009
-0.47618
-0.515284
-0.786832
-0.839012
-0.909248
-0.973706
-1.04105
-1.10474
-1.1559
-1.19607
-1.20505
-1.16716
-1.05097
-0.787871
-0.313018
0.550245
1.98131
4.26125
8.28091
12.6514
18.8117
24.2921
28.8043
32.738
34.3531
35.4519
35.8765
35.892
34.4587
33.1215
29.0963
24.3108
18.9574
12.9612
8.71599
4.81754
2.55724
1.14416
0.312528
-0.148618
-0.389331
-0.500716
-0.539928
-0.762353
-0.802544
-0.871472
-0.932406
-0.996671
-1.05908
-1.11263
-1.16231
-1.18958
-1.16949
-1.06287
-0.807543
-0.35399
0.461911
1.79212
3.95082
7.78729
12.1247
18.3314
23.8589
28.5893
32.5149
33.7255
34.6446
35.8973
36.7368
34.8152
32.6586
28.5612
24.0353
18.5874
12.6121
8.43576
4.52697
2.41722
1.04899
0.251718
-0.195152
-0.426869
-0.532803
-0.566814
-0.741514
-0.780373
-0.847331
-0.905447
-0.966686
-1.02758
-1.08332
-1.14036
-1.17951
-1.17349
-1.08355
-0.855248
-0.447302
0.266988
1.44985
3.34702
6.42996
10.0624
15.0261
19.4585
23.2847
26.3321
27.5237
28.4972
29.0347
29.1527
27.9668
26.315
23.0254
19.2845
14.8688
10.238
6.83562
3.74572
1.98148
0.818792
0.122501
-0.271617
-0.476451
-0.567683
-0.593461
-0.710332
-0.745552
-0.809755
-0.866125
-0.9265
-0.987289
-1.0438
-1.10302
-1.14711
-1.15177
-1.08427
-0.900509
-0.567212
0.00497842
0.978624
2.50129
4.63117
7.2525
10.7934
13.9212
16.6647
18.9072
20.0985
21.0548
20.779
20.097
19.6421
18.6632
16.5613
14.001
10.8225
7.60227
5.00881
2.77991
1.41697
0.51033
-0.04945
-0.369023
-0.534694
-0.604786
-0.619279
-0.684835
-0.727886
-0.788745
-0.84404
-0.907162
-0.970766
-1.02646
-1.08343
-1.12287
-1.13103
-1.08846
-0.958195
-0.705809
-0.276709
0.428394
1.51927
3.03455
4.91156
7.34049
9.562
11.6328
13.3793
14.301
14.9754
15.0446
14.7532
14.2906
13.409
11.84
9.9012
7.59561
5.29568
3.41454
1.85215
0.854896
0.183872
-0.233734
-0.472351
-0.593236
-0.639111
-0.641456
-0.658106
-0.708959
-0.766441
-0.820593
-0.886284
-0.952252
-1.00623
-1.05957
-1.0929
-1.10357
-1.08541
-1.00719
-0.829846
-0.527326
-0.0560614
0.663113
1.65036
2.85942
4.20391
5.46444
6.70928
7.78104
8.2913
8.57805
8.91564
8.96888
8.49753
7.76769
6.83824
5.67087
4.40802
3.14103
1.97232
1.01983
0.341561
-0.120402
-0.407887
-0.569279
-0.646005
-0.667789
-0.658342
-0.623354
-0.670529
-0.725197
-0.777457
-0.841826
-0.906407
-0.958404
-1.00958
-1.0431
-1.06148
-1.06519
-1.02983
-0.923948
-0.733209
-0.436774
0.00883082
0.611144
1.34179
2.14999
2.93224
3.72149
4.41511
4.78686
4.99767
5.18863
5.18738
4.88979
4.44505
3.87665
3.17372
2.41627
1.64728
0.930475
0.341367
-0.0845292
-0.376097
-0.555007
-0.649869
-0.687597
-0.688084
-0.668296
-0.596841
-0.642695
-0.695356
-0.744642
-0.805393
-0.866589
-0.916469
-0.967808
-1.0051
-1.0329
-1.05458
-1.04978
-0.993352
-0.881327
-0.708521
-0.450066
-0.097029
0.331218
0.798521
1.26335
1.67896
2.03157
2.29826
2.47018
2.55429
2.52579
2.39483
2.17466
1.84327
1.44237
1.01526
0.578464
0.177114
-0.154492
-0.401557
-0.567436
-0.663075
-0.705443
-0.712059
-0.695977
-0.668979
-0.570417
-0.610055
-0.661248
-0.70667
-0.764512
-0.823246
-0.870757
-0.923662
-0.964257
-0.999153
-1.03418
-1.04844
-1.03213
-0.980129
-0.887669
-0.747956
-0.555221
-0.318986
-0.0562392
0.213092
0.455465
0.658168
0.807943
0.906346
0.962705
0.957513
0.889227
0.765563
0.581966
0.364745
0.13697
-0.0958788
-0.308866
-0.484059
-0.612633
-0.692311
-0.734545
-0.744603
-0.728861
-0.701588
-0.665507
-0.545403
-0.578811
-0.628419
-0.669795
-0.724535
-0.780652
-0.825689
-0.879961
-0.923101
-0.962905
-1.00661
-1.03171
-1.04254
-1.03086
-0.988733
-0.922506
-0.826585
-0.705316
-0.566253
-0.416138
-0.281532
-0.169059
-0.0787202
-0.0167061
0.0145741
0.0140276
-0.0181786
-0.0824833
-0.169596
-0.274342
-0.391955
-0.510873
-0.611305
-0.687776
-0.740004
-0.763033
-0.771651
-0.762125
-0.731836
-0.697867
-0.655109
-0.522697
-0.554704
-0.601978
-0.639928
-0.690619
-0.743067
-0.785899
-0.840073
-0.885184
-0.928427
-0.976602
-1.00794
-1.0294
-1.03704
-1.0269
-1.00662
-0.968725
-0.914431
-0.847275
-0.767312
-0.694329
-0.6345
-0.586992
-0.555155
-0.539146
-0.535417
-0.541858
-0.561895
-0.594666
-0.639937
-0.694772
-0.750278
-0.787476
-0.805288
-0.809201
-0.79644
-0.780778
-0.756097
-0.717311
-0.679561
-0.636215
-0.492944
-0.521013
-0.564969
-0.600503
-0.649518
-0.700503
-0.741622
-0.793818
-0.837132
-0.879515
-0.928667
-0.963849
-0.993303
-1.01454
-1.02489
-1.03241
-1.02863
-1.01263
-0.985696
-0.945759
-0.910245
-0.883289
-0.862476
-0.850347
-0.845787
-0.841864
-0.834057
-0.827627
-0.827005
-0.836742
-0.856069
-0.875844
-0.876757
-0.860512
-0.836528
-0.803774
-0.775382
-0.743367
-0.700619
-0.660806
-0.616568
-0.468501
-0.501639
-0.541521
-0.575454
-0.615254
-0.657073
-0.6968
-0.745455
-0.791992
-0.838183
-0.88567
-0.923009
-0.954915
-0.981987
-1.0046
-1.02689
-1.04281
-1.04903
-1.04411
-1.02731
-1.00986
-0.99698
-0.98876
-0.9849
-0.982172
-0.975334
-0.961512
-0.943928
-0.927487
-0.918495
-0.917694
-0.916467
-0.900615
-0.870972
-0.835176
-0.794815
-0.757059
-0.718132
-0.674837
-0.634245
-0.59244

POINT_DATA	1681
SCALARS T_zz double 1
LOOKUP_TABLE table0
-0.446066
-0.468982
-0.494668
-0.520491
-0.541541
-0.558005
-0.570177
-0.573599
-0.577122
-0.57505
-0.561722
-0.546384
-0.528721
-0.508986
-0.487716
-0.464984
-0.440521
-0.41537
-0.390461
-0.365315
-0.341405
-0.317933
-0.293387
-0.267565
-0.239395
-0.208563
-0.175762
-0.142213
-0.106205
-0.0700125
-0.0361231
-0.00337452
0.0258343
0.0503906
0.0700084
0.0841915
0.0930151
0.0972385
0.0975145
0.0938381
0.087645
-0.476521
-0.499688
-0.527828
-0.555829
-0.575086
-0.588083
-0.597444
-0.595166
-0.598342
-0.593942
-0.569224
-0.542438
-0.513779
-0.4849
-0.457753
-0.432864
-0.409642
-0.389805
-0.374594
-0.362166
-0.354243
-0.347873
-0.339186
-0.327694
-0.311237
-0.288485
-0.259746
-0.226712
-0.18558
-0.140699
-0.0969288
-0.0518484
-0.0101153
0.0261571
0.0562835
0.0788842
0.0936782
0.101929
0.104871
0.102425
0.0971662
-0.512851
-0.539454
-0.56986
-0.598438
-0.616201
-0.625331
-0.628234
-0.616727
-0.607657
-0.587821
-0.544909
-0.49855
-0.451005
-0.406158
-0.368136
-0.339549
-0.321026
-0.313827
-0.318047
-0.331027
-0.35308
-0.378524
-0.400773
-0.417934
-0.42642
-0.422107
-0.403364
-0.372835
-0.32805
-0.272875
-0.212226
-0.146149
-0.0826157
-0.0261128
0.0214667
0.0582518
0.0838836
0.0998735
0.107904
0.108398
0.104443
-0.552988
-0.584055
-0.616392
-0.643352
-0.655675
-0.655877
-0.646805
-0.620213
-0.59199
-0.547522
-0.474283
-0.394105
-0.313104
-0.239339
-0.181022
-0.145655
-0.137256
-0.15512
-0.195864
-0.255953
-0.333632
-0.416844
-0.493282
-0.561355
-0.617605
-0.650396
-0.651244
-0.626208
-0.57744
-0.506261
-0.416541
-0.313997
-0.213275
-0.122815
-0.0462209
0.0140367
0.0575607
0.0863704
0.103018
0.10886
0.107842
-0.584514
-0.610171
-0.643706
-0.666674
-0.681204
-0.678364
-0.649544
-0.597773
-0.532355
-0.440829
-0.315054
-0.176192
-0.0361595
0.0890428
0.181124
0.226678
0.21327
0.145883
0.0396907
-0.104544
-0.273565
-0.449653
-0.620515
-0.776848
-0.929298
-1.04311
-1.08066
-1.06723
-1.00734
-0.901348
-0.761502
-0.596908
-0.432325
-0.284469
-0.159631
-0.0610692
0.010824
0.0595914
0.0898119
0.104247
0.107508
-0.613287
-0.632463
-0.665761
-0.682594
-0.695799
-0.683896
-0.625305
-0.532539
-0.406646
-0.236464
-0.0191591
0.221044
0.460549
0.67087
0.819777
0.885543
0.846322
0.703574
0.480058
0.183402
-0.151245
-0.494345
-0.829202
-1.13407
-1.4303
-1.66992
-1.79206
-1.81946
-1.74109
-1.56633
-1.33191
-1.05887
-0.786971
-0.544041
-0.340494
-0.180949
-0.0650031
0.0140597
0.0644985
0.0917526
0.101961
-0.645313
-0.665725
-0.696663
-0.705545
-0.702967
-0.664559
-0.564591
-0.409867
-0.194569
0.0983031
0.470674
0.88478
1.32166
1.70379
1.93768
2.0278
1.9288
1.64352
1.23274
0.688528
0.0806419
-0.540049
-1.1637
-1.72858
-2.27089
-2.73043
-2.98737
-3.07306
-2.96054
-2.66087
-2.2613
-1.80818
-1.34829
-0.94033
-0.612805
-0.359981
-0.178578
-0.0557075
0.0231773
0.0683947
0.0895469
-0.668875
-0.687392
-0.713498
-0.712598
-0.691883
-0.621453
-0.467369
-0.225919
0.120905
0.602564
1.22348
1.92682
2.68368
3.34648
3.74118
3.87563
3.66835
3.14701
2.43251
1.50382
0.471441
-0.584986
-1.65835
-2.6434
-3.57778
-4.36698
-4.81614
-4.96874
-4.80162
-4.32294
-3.66006
-2.91256
-2.16352
-1.50814
-0.993883
-0.605323
-0.332675
-0.150864
-0.0343523
0.034528
0.0701946
-0.697392
-0.722811
-0.741694
-0.728682
-0.674706
-0.553834
-0.330659
0.0283648
0.565965
1.32657
2.37224
3.5751
4.89278
6.05034
6.85881
7.21617
6.78428
5.85889
4.50425
2.82667
1.1155
-0.630284
-2.4292
-4.12445
-5.7239
-7.04245
-7.90224
-8.28462
-7.98129
-7.23627
-6.03511
-4.67426
-3.40759
-2.29616
-1.50405
-0.919431
-0.526812
-0.2703
-0.106657
-0.00842066
0.0443981
-0.723878
-0.755148
-0.765074
-0.737135
-0.645452
-0.46625
-0.156316
0.360113
1.16185
2.30838
3.91768
5.8041
7.90433
9.70187
10.9085
11.4389
10.8175
9.48633
7.3111
4.60808
1.95817
-0.708736
-3.45139
-6.10497
-8.66096
-10.6831
-11.882
-12.3467
-11.8606
-10.8592
-9.09419
-7.02281
-5.06843
-3.32721
-2.14644
-1.3075
-0.763044
-0.413675
-0.193182
-0.0605874
0.0119969
-0.741115
-0.767659
-0.768345
-0.723462
-0.601803
-0.369079
0.0417096
0.748445
1.86581
3.4923
5.75284
8.46153
12.0629
15.0963
17.0426
18.0871
16.8536
14.6921
11.3164
7.078
3.13612
-0.785329
-4.7357
-8.6357
-12.9175
-16.2677
-18.4636
-19.6081
-18.2727
-16.4456
-13.4405
-9.88468
-7.10399
-4.56837
-2.8914
-1.76167
-1.03519
-0.575558
-0.290737
-0.12075
-0.0264485
-0.762091
-0.786062
-0.779172
-0.717893
-0.565036
-0.277005
0.232249
1.118
2.54422
4.71868
7.82156
11.5264
16.6407
20.8394
23.4622
24.9253
22.9272
19.8525
15.3722
9.73176
4.50247
-0.82686
-6.25601
-11.5598
-17.4466
-21.9355
-25.0814
-26.9644
-24.8584
-22.2812
-18.0891
-13.0424
-9.35401
-5.92152
-3.68071
-2.22762
-1.30903