# vtk DataFile Version 3.0
Gravity inversion using rectangular prisms
ASCII
DATASET UNSTRUCTURED_GRID

POINTS	7201	double
0	0	0
0	0	200
0	0	400
0	0	600
0	0	800
0	0	1000
0	200	0
0	200	200
0	200	400
0	200	600
0	200	800
0	200	1000
0	400	0
0	400	200
0	400	400
0	400	600
0	400	800
0	400	1000
0	600	0
0	600	200
0	600	400
0	600	600
0	600	800
0	600	1000
0	800	0
0	800	200
0	800	400
0	800	600
0	800	800
0	800	1000
0	1000	0
0	1000	200
0	1000	400
0	1000	600
0	1000	800
0	1000	1000
0	1200	0
0	1200	200
0	1200	400
0	1200	600
0	1200	800
0	1200	1000
0	1400	0
0	1400	200
0	1400	400
0	1400	600
0	1400	800
0	1400	1000
0	1600	0
0	1600	200
0	1600	400
0	1600	600
0	1600	800
0	1600	1000
0	1800	0
0	1800	200
0	1800	400
0	1800	600
0	1800	800
0	1800	1000
0	2000	0
0	2000	200
0	2000	400
0	2000	600
0	2000	800
0	2000	1000
200	0	0
200	0	200
200	0	400
200	0	600
200	0	800
200	0	1000
200	200	0
200	200	200
200	200	400
200	200	600
200	200	800
200	200	1000
200	400	0
200	400	200
200	400	400
200	400	600
200	400	800
200	400	1000
200	600	0
200	600	200
200	600	400
200	600	600
200	600	800
200	600	1000
200	800	0
200	800	200
200	800	400
200	800	600
200	800	800
200	800	1000
200	1000	0
200	1000	200
200	1000	400
200	1000	600
200	1000	800
200	1000	1000
200	1200	0
200	1200	200
200	1200	400
200	1200	600
200	1200	800
200	1200	1000
200	1400	0
200	1400	200
200	1400	400
200	1400	600
200	1400	800
200	1400	1000
200	1600	0
200	1600	200
200	1600	400
200	1600	600
200	1600	800
200	1600	1000
200	1800	0
200	1800	200
200	1800	400
200	1800	600
200	1800	800
200	1800	1000
200	2000	0
200	2000	200
200	2000	400
200	2000	600
200	2000	800
200	2000	1000
400	0	0
400	0	200
400	0	400
400	0	600
400	0	800
400	0	1000
400	200	0
400	200	200
400	200	400
400	200	600
400	200	800
400	200	1000
400	400	0
400	400	100
400	400	200
400	400	300
400	400	400
400	400	500
400	400	600
400	400	800
400	400	1000
400	500	0
400	500	100
400	500	200
400	500	300
400	500	400
400	500	500
400	500	600
400	600	0
400	600	100
400	600	200
400	600	300
400	600	400
400	600	500
400	600	600
400	600	800
400	600	1000
400	700	0
400	700	100
400	700	200
400	700	300
400	700	400
400	700	500
400	700	600
400	800	0
400	800	100
400	800	200
400	800	300
400	800	400
400	800	500
400	800	600
400	800	800
400	800	1000
400	900	0
400	900	100
400	900	200
400	900	300
400	900	400
400	900	500
400	900	600
400	1000	0
400	1000	100
400	1000	200
400	1000	300
400	1000	400
400	1000	500
400	1000	600
400	1000	800
400	1000	1000
400	1200	0
400	1200	200
400	1200	400
400	1200	600
400	1200	800
400	1200	1000
400	1400	0
400	1400	200
400	1400	400
400	1400	600
400	1400	800
400	1400	1000
400	1600	0
400	1600	200
400	1600	400
400	1600	600
400	1600	800
400	1600	1000
400	1800	0
400	1800	200
400	1800	400
400	1800	600
400	1800	800
400	1800	1000
400	2000	0
400	2000	200
400	2000	400
400	2000	600
400	2000	800
400	2000	1000
500	400	0
500	400	100
500	400	200
500	400	300
500	400	400
500	400	500
500	400	600
500	500	0
500	500	100
500	500	200
500	500	250
500	500	300
500	500	350
500	500	400
500	500	500
500	500	600
500	550	200
500	550	250
500	550	300
500	550	350
500	550	400
500	600	0
500	600	100
500	600	150
500	600	200
500	600	250
500	600	300
500	600	350
500	600	400
500	600	450
500	600	500
500	600	600
500	650	100
500	650	150
500	650	200
500	650	250
500	650	300
500	650	350
500	650	400
500	650	450
500	650	500
500	700	0
500	700	100
500	700	150
500	700	200
500	700	250
500	700	300
500	700	350
500	700	400
500	700	450
500	700	500
500	700	600
500	750	100
500	750	150
500	750	200
500	750	250
500	750	300
500	750	350
500	750	400
500	750	450
500	750	500
500	800	0
500	800	100
500	800	150
500	800	200
500	800	250
500	800	300
500	800	350
500	800	400
500	800	450
500	800	500
500	800	600
500	850	200
500	850	250
500	850	300
500	850	350
500	850	400
500	900	0
500	900	100
500	900	200
500	900	250
500	900	300
500	900	350
500	900	400
500	900	500
500	900	600
500	1000	0
500	1000	100
500	1000	200
500	1000	300
500	1000	400
500	1000	500
500	1000	600
550	500	200
550	500	250
550	500	300
550	500	350
550	500	400
550	550	200
550	550	250
550	550	300
550	550	350
550	550	400
550	600	100
550	600	150
550	600	200
550	600	225
550	600	250
550	600	275
550	600	300
550	600	325
550	600	350
550	600	375
550	600	400
550	600	450
550	600	500
550	625	200
550	625	225
550	625	250
550	625	275
550	625	300
550	625	325
550	625	350
550	625	375
550	625	400
550	650	100
550	650	150
550	650	200
550	650	225
550	650	250
550	650	275
550	650	300
550	650	325
550	650	350
550	650	375
550	650	400
550	650	450
550	650	500
550	675	200
550	675	225
550	675	250
550	675	275
550	675	300
550	675	325
550	675	350
550	675	375
550	675	400
550	700	100
550	700	150
550	700	200
550	700	225
550	700	250
550	700	275
550	700	300
550	700	325
550	700	350
550	700	375
550	700	400
550	700	450
550	700	500
550	725	200
550	725	225
550	725	250
550	725	275
550	725	300
550	725	325
550	725	350
550	725	375
550	725	400
550	750	100
550	750	150
550	750	200
550	750	225
550	750	250
550	750	275
550	750	300
550	750	325
550	750	350
550	750	375
550	750	400
550	750	450
550	750	500
550	775	200
550	775	225
550	775	250
550	775	275
550	775	300
550	775	325
550	775	350
550	775	375
550	775	400
550	800	100
550	800	150
550	800	200
550	800	225
550	800	250
550	800	275
550	800	300
550	800	325
550	800	350
550	800	375
550	800	400
550	800	450
550	800	500
550	850	200
550	850	250
550	850	300
550	850	350
550	850	400
550	900	200
550	900	250
550	900	300
550	900	350
550	900	400
575	600	200
575	600	225
575	600	250
575	600	275
575	600	300
575	600	325
575	600	350
575	600	375
575	600	400
575	625	200
575	625	225
575	625	250
575	625	275
575	625	300
575	625	325
575	625	350
575	625	375
575	625	400
575	650	200
575	650	225
575	650	250
575	650	275
575	650	300
575	650	325
575	650	350
575	650	375
575	650	400
575	675	200
575	675	225
575	675	250
575	675	275
575	675	300
575	675	325
575	675	350
575	675	375
575	675	400
575	700	200
575	700	225
575	700	250
575	700	275
575	700	300
575	700	325
575	700	350
575	700	375
575	700	400
575	725	200
575	725	225
575	725	250
575	725	275
575	725	300
575	725	325
575	725	350
575	725	375
575	725	400
575	750	200
575	750	225
575	750	250
575	750	275
575	750	300
575	750	325
575	750	350
575	750	375
575	750	400
575	775	200
575	775	225
575	775	250
575	775	275
575	775	300
575	775	325
575	775	350
575	775	375
575	775	400
575	800	200
575	800	225
575	800	250
575	800	275
575	800	300
575	800	325
575	800	350
575	800	375
575	800	400
600	0	0
600	0	200
600	0	400
600	0	600
600	0	800
600	0	1000
600	200	0
600	200	200
600	200	300
600	200	400
600	200	600
600	200	800
600	200	1000
600	300	200
600	300	300
600	300	400
600	400	0
600	400	100
600	400	200
600	400	250
600	400	300
600	400	400
600	400	500
600	400	600
600	400	800
600	400	1000
600	450	200
600	450	250
600	450	300
600	500	0
600	500	100
600	500	150
600	500	200
600	500	250
600	500	300
600	500	350
600	500	400
600	500	500
600	500	600
600	550	100
600	550	150
600	550	200
600	550	225
600	550	250
600	550	275
600	550	300
600	550	350
600	550	400
600	575	200
600	575	225
600	575	250
600	575	275
600	575	300
600	600	0
600	600	50
600	600	100
600	600	150
600	600	175
600	600	200
600	600	225
600	600	250
600	600	275
600	600	300
600	600	325
600	600	350
600	600	375
600	600	400
600	600	450
600	600	500
600	600	550
600	600	600
600	600	700
600	600	800
600	600	1000
600	625	150
600	625	175
600	625	200
600	625	225
600	625	250
600	625	275
600	625	300
600	625	325
600	625	350
600	625	375
600	625	400
600	650	0
600	650	50
600	650	100
600	650	150
600	650	175
600	650	200
600	650	225
600	650	250
600	650	275
600	650	300
600	650	325
600	650	350
600	650	375
600	650	400
600	650	450
600	650	500
600	650	550
600	650	600
600	675	150
600	675	175
600	675	200
600	675	225
600	675	250
600	675	275
600	675	300
600	675	325
600	675	350
600	675	375
600	675	400
600	700	0
600	700	50
600	700	100
600	700	150
600	700	175
600	700	200
600	700	225
600	700	250
600	700	275
600	700	300
600	700	325
600	700	350
600	700	375
600	700	400
600	700	450
600	700	500
600	700	550
600	700	600
600	700	700
600	700	800
600	725	150
600	725	175
600	725	200
600	725	225
600	725	250
600	725	275
600	725	300
600	725	325
600	725	350
600	725	375
600	725	400
600	750	100
600	750	150
600	750	175
600	750	200
600	750	225
600	750	250
600	750	275
600	750	300
600	750	325
600	750	350
600	750	375
600	750	400
600	750	450
600	750	500
600	750	550
600	750	600
600	775	150
600	775	175
600	775	200
600	775	225
600	775	250
600	775	275
600	775	300
600	775	325
600	775	350
600	775	375
600	775	400
600	800	0
600	800	100
600	800	150
600	800	175
600	800	200
600	800	225
600	800	250
600	800	275
600	800	300
600	800	325
600	800	350
600	800	375
600	800	400
600	800	450
600	800	500
600	800	550
600	800	600
600	800	700
600	800	800
600	800	1000
600	825	200
600	825	225
600	825	250
600	825	275
600	825	300
600	850	100
600	850	150
600	850	200
600	850	225
600	850	250
600	850	275
600	850	300
600	850	350
600	850	400
600	900	0
600	900	100
600	900	150
600	900	200
600	900	250
600	900	300
600	900	350
600	900	400
600	900	500
600	900	600
600	900	700
600	900	800
600	1000	0
600	1000	100
600	1000	200
600	1000	300
600	1000	400
600	1000	500
600	1000	600
600	1000	700
600	1000	800
600	1000	1000
600	1100	200
600	1100	300
600	1100	400
600	1100	500
600	1100	600
600	1200	0
600	1200	200
600	1200	300
600	1200	400
600	1200	500
600	1200	600
600	1200	800
600	1200	1000
600	1300	200
600	1300	300
600	1300	400
600	1400	0
600	1400	100
600	1400	200
600	1400	300
600	1400	400
600	1400	600
600	1400	800
600	1400	1000
600	1500	0
600	1500	100
600	1500	200
600	1500	300
600	1500	400
600	1600	0
600	1600	100
600	1600	200
600	1600	300
600	1600	400
600	1600	600
600	1600	800
600	1600	1000
600	1800	0
600	1800	200
600	1800	400
600	1800	600
600	1800	800
600	1800	1000
600	2000	0
600	2000	200
600	2000	400
600	2000	600
600	2000	800
600	2000	1000
625	550	200
625	550	225
625	550	250
625	550	275
625	550	300
625	575	200
625	575	225
625	575	250
625	575	275
625	575	300
625	600	150
625	600	175
625	600	200
625	600	225
625	600	250
625	600	275
625	600	300
625	600	325
625	600	350
625	600	375
625	600	400
625	625	150
625	625	175
625	625	200
625	625	225
625	625	250
[...]
CELL_DATA	4973
SCALARS model double 1
LOOKUP_TABLE table0
-0.00336363
-0.595155
4.34789
-1.6075
-2.23583
-0.0463804
0.845144
1.23553
-1.69252
-2.13567
-0.00241348
0.936605
-4.26192
-5.56481
-6.9756
-0.0317634
2.52372
-6.52318
-8.80121
-11.1486
0.0368878
0.932153
-7.87967
-8.91258
-11.3502
0.0879715
-1.17787
2.13684
-3.31828
-4.27217
0.0599125
-4.45617
13.6407
0.797343
-3.84818
0.0628113
-2.72489
14.8176
-0.0724615
-3.88887
-0.0404916
-0.725908
-1.54714
-0.951735
-1.32339
-0.115647
3.57256
-9.13526
-2.30952
-3.2944
-0.0265203
0.601202
-3.35531
-5.28759
-7.02819
-0.00141444
-0.433908
-2.41552
-5.21854
-6.78001
0.0385454
-2.35869
-4.5692
-6.62882
-8.71157
0.0324972
-3.91968
-4.71051
-6.93
-8.9915
0.0602899
-3.38271
-7.01062
-7.67219
-9.85782
0.0323962
-1.57145
-4.53494
-6.62124
-9.0176
-0.0441195
1.19942
-4.79052
-7.70672
-9.92644
-0.0173003
-0.126416
-7.57615
-8.77444
-10.8923
-0.044996
3.00303
-5.62637
-6.03146
-8.04736
0.0526334
-2.42027
3.76026
-1.98108
-2.54177
-0.0128504
0.014127
-2.06256
-4.10521
-7.39527
-0.020543
-2.11919
-3.84337
-3.5983
-4.45416
0.0504302
-0.0717708
0.0070322
0.0283521
0.326564
2.26712
-0.248659
2.4989
-0.347054
1.31964
0.1064
4.05334
0.599134
2.76928
8.62945
10.7579
8.63046
10.7617
8.63293
10.7617
8.63263
10.7639
4.00711
4.38093
4.01118
4.38561
4.00951
4.38269
4.01235
4.3869
4.71028
5.76619
4.71919
5.79612
4.37013
5.7614
5.01221
5.79342
5.57988
10.2673
-0.0822903
-2.54195
-0.107731
-3.19035
-3.01309
-5.55204
-5.41039
-5.55271
-5.41043
-5.55163
-5.40944
-5.55229
-5.40966
-1.33953
-4.06893
-4.15437
-4.06072
-4.15246
-4.0689
-4.15434
-4.06104
-4.15169
-2.72469
25.2055
-2.19599
25.2314
92.93
113.413
92.9293
113.511
95.541
99.1238
95.5422
99.1237
95.5425
99.1253
95.5436
99.1251
108.857
117.895
108.859
117.918
108.863
117.917
108.865
117.935
96.0468
98.7786
96.0461
98.7784
96.0482
98.7803
96.0474
98.78
108.822
119.689
108.836
119.878
108.823
119.684
108.846
119.866
31.3818
35.7254
31.3641
35.7933
30.6942
33.1093
30.681
33.1076
30.696
33.1111
30.6827
33.1095
34.7341
36.7143
34.7332
36.7178
34.7361
36.713
34.735
36.7155
30.6171
32.9468
30.5578
32.9409
30.6188
32.9488
30.5599
32.9429
34.4021
37.0524
34.4034
37.0873
34.367
37.0251
34.3681
37.0559
92.6728
113.094
89.9999
110.706
96.0611
98.782
96.0717
98.7717
96.0623
98.7833
96.0729
98.7733
117.491
119.749
117.616
119.812
117.493
119.759
117.618
119.824
96.1532
98.3567
96.1518
98.355
96.1547
98.3583
96.1533
98.3567
119.186
119.375
119.186
119.378
119.187
119.379
119.188
119.378
31.3516
36.1128
31.2973
36.1282
30.4346
32.5147
30.4389
32.5062
30.4369
32.5165
30.4409
32.5085
34.7659
37.4789
34.7724
37.4734
34.7708
37.4794
34.7798
37.4751
30.5095
32.1528
30.5364
32.107
30.5112
32.1518
30.5377
32.1074
34.824
37.2055
34.8333
37.1995
34.8263
37.2065
34.8347
37.2005
36.8861
45.2159
36.8796
45.1983
40.834
38.7404
40.7634
38.7432
40.8268
38.7421
40.7685
38.7452
44.9829
40.8
38.7498
40.763
38.7511
40.8124
38.7515
40.7736
38.7527
44.9819
12.7992
12.4707
0.0429385
0.045599
0.0780072
0.23305
0.27926
7.26685
0.0702683
2.33621
-0.602327
0.34463
-4.44758
-6.03608
12.3563
14.9808
12.3513
14.9784
12.3645
14.9853
12.3519
14.9784
2.19199
2.58337
2.22229
2.57769
2.18474
2.63844
2.36245
2.75167
-9.16027
-6.83515
3.40316
4.4068
3.38971
4.40391
3.42526
4.40224
2.26004
4.39933
9.55829
12.298
0.0306262
-5.98365
-7.5617
-2.48218
-2.45817
0.132096
-7.08227
-5.80943
-2.86099
-2.87869
0.0566233
-1.91818
-2.59912
-3.19343
-2.67424
0.0987649
-3.51305
-3.0117
-3.15816
-3.03806
-0.0516367
2.39458
-3.39537
-2.24379
-2.50884
0.0134541
-1.10939
-3.08397
-4.4416
-5.81634
-0.00138992
-4.18948
-4.42334
-4.74427
-4.59406
-5.25116
-4.67697
-4.89472
-4.29632
-4.42468
-2.4991
-3.17941
0.23847
3.5951
-2.11024
24.5977
25.282
24.5983
25.2848
24.6026
25.2789
24.6029
25.28
0.829439
9.02103
0.781715
24.5948
25.27
24.5946
25.2707
24.598
25.2674
24.598
25.2685
8.83377
10.5673
8.83774
10.5695
8.83148
10.5664
8.83787
10.5701
75.0157
153.805
186.015
172.213
172.817
172.214
172.819
172.212
172.818
172.214
172.82
186.749
187.004
186.751
187.008
186.757
187.006
186.759
187.009
154.145
191.051
170.936
197.173
94.1829
94.168
94.1854
94.1716
94.1832
94.1672
94.187
94.1717
-8.61147
-10.5449
-8.61004
-10.5434
-8.61169
-10.5447
-8.6096
-10.5426
74.1135
154.897
191.168
170.953
197.604
155.215
190.639
172.432
172.934
172.433
172.935
172.432
172.933
172.433
172.935
197.67
94.2132
94.1683
94.2149
94.1728
94.216
94.1338
94.2183
94.1365
62.5829
66.4073
65.4116
67.4726
62.729
69.6973
65.6695
68.7535
25.4141
28.7792
-16.4815
-16.8758
-16.482
-16.8768
-16.4831
-16.8787
-16.4834
-16.8793
142.588
148.965
149.498
148.966
149.498
148.965
149.498
148.966
149.498
142.587
148.964
149.498
148.955
149.498
148.964
149.499
148.955
149.499
142.59
150.069
142.59
150.111
-10.9297
86.9958
147.642
148.484
147.643
148.478
147.643
148.485
147.643
148.479
86.9621
147.643
148.472
147.643
148.471
147.643
148.473
147.643
148.471
55.0969
150.145
55.0954
147.643
148.556
147.641
148.555
147.642
148.559
147.64
148.558
-11.6826
138.93
150.078
138.929
150.084
138.884
148.891
149.606
148.891
149.607
148.889
149.602
148.889
149.603
138.885
150.102
-9.75974
134.144
150.151
133.847
148.506
149.005
148.505
149.004
148.507
148.995
148.506
148.994
134.145
150.144
133.848
148.494
148.873
148.494
148.872
148.493
148.857
148.493
148.856
461.913
463.464
461.913
463.468
461.913
463.464
461.913
463.468
465.603
466.641
465.609
466.641
465.603
466.644
465.609
466.644
461.282
463.468
461.298
463.463
461.281
463.469
461.298
463.463
466.173
466.357
466.175
466.356
466.173
466.36
466.175
466.358
411.183
412.058
411.183
412.058
411.18
412.071
411.18
412.072
465.423
385.404
466.627
369.476
369.65
369.478
369.655
369.477
369.653
369.479
369.658
367.495
366.962
367.491
366.965
367.5
366.968
367.495
366.972
369.531
369.686
369.533
369.698
369.531
369.689
369.533
369.701
367.179
367.86
367.179
367.865
367.18
367.864
367.179
367.869
368.323
367.839
368.487
367.839
368.489
367.843
368.492
367.843
368.494
368.369
368.029
461.37
463.044
461.344
463.04
461.369
463.045
461.345
463.04
466.297
466.343
466.296
466.348
466.297
466.341
466.297
466.34
461.262
462.737
461.259
462.73
461.261
462.741
461.259
462.736
466.204
466.314
466.181
466.331
466.19
466.284
466.106
466.303
385.451
467.156
460.565
462.736
460.565
462.735
460.546
462.735
460.546
462.734
466.091
466.213
466.035
466.209
466.051
466.304
466.027
466.295
369.532
369.704
369.529
369.705
369.532
369.707
369.529
369.708
367.165
367.895
367.083
367.894
367.168
367.899
367.077
367.898
365.261
366.047
365.258
366.044
365.262
366.051
365.259
366.047
367.092
367.729
367.062
367.736
367.261
367.739
367.246
367.73
368.381
367.986
368.309
367.175
367.787
367.154
367.772
367.395
367.897
367.372
367.896
410.896
412.214
410.896
412.214
410.896
412.026
410.896
412.026
465.403
384.661
466.541
465.017
466.39
465.018
466.39
465.017
466.39
465.018
466.39
465.176
384.425
466.074
368.39
368.16
368.727
368.159
368.729
368.169
368.728
368.168
368.73
368.382
368.036
368.339
368.172
368.727
368.172
368.729
368.172
368.725
368.172
368.727
368.289
368.049
384.564
467.076
460.532
462.731
460.531
462.731
460.516
462.729
460.516
462.728
465.99
466.174
465.987
466.17
465.988
466.202
465.985
466.195
384.409
466.831
460.488
462.728
460.488
462.728
460.391
462.728
460.39
462.727
465.985
466.239
465.982
466.241
465.984
466.246
465.979
466.245
368.315
368.037
368.323
367.3
367.897
367.281
367.914
367.592
367.867
367.589
367.865
368.293
368.055
368.195
367.672
367.774
367.679
367.768
367.674
367.753
367.679
367.763
189.377
190.841
189.377
190.842
189.38
190.857
189.381
190.858
149.917
150.383
149.914
150.381
149.916
150.384
149.914
150.382
189.38
190.843
189.378
190.84
189.383
190.857
189.383
190.855
149.907
150.375
149.902
150.37
149.907
150.377
149.902
150.371
200.571
200.212
200.571
200.213
200.579
200.213
200.58
200.215
150.992
208.212
208.215
208.214
208.215
208.213
208.215
208.214
208.216
150.995
44.4388
45.3367
44.4427
45.3465
44.4407
45.3263
44.4458
45.3297
54.7586
-1.33455
35.0512
35.9811
35.0512
35.9728
35.0513
35.9813
35.0516
35.9737
0.563073
2.39001
1.31066
23.5943
24.918
23.5944
24.899
23.5939
24.9207
23.5936
24.9019
0.703234
-0.171923
116.151
116.723
116.149
116.716
116.15
116.723
116.148
116.716
114.494
115.314
114.492
115.315
114.492
115.316
114.489
115.317
91.0486
113.472
116.128
116.717
116.126
116.71
116.119
116.713
116.117
116.706
114.49
115.348
114.488
115.349
114.491
115.354
114.489
115.355
91.0854
113.481
79.6339
87.4267
77.2706
87.3137
79.633
87.3573
77.3623
87.2955
20.3358
42.3691
107.63
113.699
107.627
113.694
107.626
113.692
107.623
113.688
123.972
126.956
123.969
126.956
123.972
126.959
123.97
126.959
102.769
125.367
107.593
112.09
107.59
112.088
107.592
112.087
107.59
112.085
123.963
126.965
123.961
126.965
123.963
126.97
123.961
126.97
102.788
125.37
77.2812
88.1154
77.5024
87.2718
77.054
88.3724
77.1301
86.5361
28.656
48.2614
103.38
110.747
85.2829
104.411
103.436
110.755
85.3536
104.454
45.0221
45.1579
45.0254
45.2575
45.0262
45.1466
45.0299
45.2658
54.189
-0.0805933
-17.8228
-17.5656
-15.8102
-17.481
-19.7612
-18.3038
-20.1645
-18.2513
1.56606
1.93281
1.57896
1.93455
1.45728
1.789
1.48227
1.83323
11.3356
15.2584
-0.125636
-8.33249
-5.11087
-6.75152
-4.95982
-6.15364
-5.02052
-4.41464
-4.96186
0.650617
4.44123
6.84132
-0.00455455
-0.0477406
-0.00142585
-0.0117101
0.0461147
0.124585
0.0825825
0.00613521
-0.559457
-0.780529
0.277772
-0.0458575
0.426095
-0.476732
0.359453
-0.0921815
1.41317
3.05462
4.05447
-0.0259651
-0.0573429
0.261524
0.891995
2.01681
0.122005
-4.36487
-2.85063
-1.38767
-0.89047
0.0199104
-0.487839
-4.79132
-4.40583
-4.25798
-0.022366
-4.83142
-4.00786
-4.80326
-2.68966
-4.41816
-4.33219
-4.77547
-4.31394
-3.42963
-1.58376
-2.02026
0.144196
1.6717
0.911788
22.6875
23.7874
22.6865
23.7883
22.6868
23.7841
22.6858
23.7851
0.4468
-3.04886
0.601402
-13.6554
-14.4281
-13.6551
-14.4239
-13.6564
-14.4304
-13.6559
-14.4265
-6.5654
-8.1994
-6.56423
-8.19767
-6.56453
-8.1985
-6.5644
-8.19747
57.4506
156.495
190.12
156.74
192.171
153.615
188.081
153.302
186.644
71.6864
83.8997
71.6874
83.9032
71.6833
83.9026
71.6852
83.9042
-10.1176
57.3852
79.6626
96.1956
80.9608
99.1926
79.5733
95.0752
80.0269
97.8108
61.4363
59.7932
61.5615
59.7972
61.4346
59.7904
61.556
59.7948
62.2866
75.7577
65.7747
74.8483
62.4825
75.748
65.5913
65.7386
65.5936
65.7411
65.5912
65.7384
65.5934
65.7406
75.7754
24.9402
30.9246
0.517633
19.0354
23.5266
27.851
23.5387
27.8653
23.5303
27.6236
23.5351
27.6466
19.0328
23.9158
27.8728
23.9346
27.8631
23.9536
27.8593
23.9416
27.8889
19.0136
25.8173
19.0217
25.9508
1.17441
18.6655
23.7539
28.0133
23.7548
28.0088
23.754
28.0071
23.7547
28.0151
18.6701
25.4391
29.3135
25.4399
29.3143
25.4372
29.3127
25.438
29.3134
18.6679
26.3035
18.6708
26.5527
-0.0593499
-10.2709
-13.3727
-15.2399
-13.3663
-15.2411
-13.3527
-15.2407
-13.3469
-15.2426
-10.268
-13.3156
-15.3378
-13.2966
-15.3393
-13.3153
-15.3366
-13.297
-15.3383
-10.296
-13.2677
-15.324
-13.2721
-15.3315
-13.5411
-15.3311
-13.5455
-15.3239
-10.3347
-13.3086
-14.9594
-13.3071
-14.9525
-13.3102
-14.9561
-13.3075
-14.9497
0.506681
-8.20627
-9.97835
-11.2775
-9.87119
-11.2599
-9.98073
-11.2688
-9.87308
-11.2605
-8.16557
-9.87943
-11.2781
-9.87935
-11.283
-9.8912
-11.2804
-9.88668
-11.2848
-8.25642
-9.98773
-11.2465
-9.98016
-11.2473
-9.9882
-11.2444
-9.98126
-11.2466
-8.19642
-10.017
-11.2856
-10.0153
-11.2907
-10.0199
-11.2876
-10.0199
-11.2914
334.393
335.505
334.393
335.507
334.402
335.501
334.402
335.502
355.155
333.802
355.156
334.395
335.327
334.395
335.328
334.385
335.322
334.385
335.323
354.79
333.802
354.785
333.298
333.553
333.299
333.559
333.292
333.514
333.294
333.515
343.249
344.027
343.25
344.027
343.248
344.027
343.249
344.028
355.192
343.271
344.073
343.272
344.076
343.269
344.073
343.269
344.078
355.191
343.348
354.335
343.121
344.09
343.121
344.088
343.069
344.091
343.069
344.091
354.334
333.301
333.561
333.301
333.561
333.296
333.519
333.296
333.511
325.765
327.258
325.766
327.257
325.762
327.255
325.763
327.254
351.562
325.794
327.257
325.797
327.256
325.792
327.255
325.794
327.255
351.625
325.416
326.935
325.415
326.936
325.414
326.93
325.412
326.931
349.988
349.381
349.99
349.384
349.988
349.377
349.99
349.38
324.948
327.04
324.918
327.044
324.945
327.036
324.914
327.04
349.957
349.554
349.957
349.553
349.958
349.552
349.957
349.552
314.868
314.588
314.977
314.596
314.337
314.417
314.338
314.423
314.315
314.422
314.318
314.431
313.772
314.705
313.777
314.707
313.769
314.692
313.775
314.702
314.483
314.459
314.483
314.506
314.485
314.455
314.489
314.459
313.788
314.711
313.799
314.719
313.781
314.709
313.784
314.713
341.521
343.262
341.52
343.268
341.517
343.282
341.516
343.288
351.564
339.121
348.619
339.072
348.619
339.09
348.62
339.081
348.62
351.563
326.884
348.378
327.327
348.469
318.497
348.377
318.498
348.468
349.869
349.482
349.86
349.458
349.868
349.479
349.858
349.457
341.522
348.618
341.526
348.62
318.605
348.604
318.39
348.604
349.854
349.418
349.851
349.421
349.852
349.414
349.848
349.42
314.924
314.598
314.781
314.593
314.4
314.444
314.379
314.404
314.388
314.406
314.36
314.387
313.807
314.723
313.807
314.719
313.772
314.716
313.766
314.704
314.226
314.458
314.172
314.479
314.237
314.447
314.167
314.419
313.801
314.705
313.798
314.698
313.735
314.695
313.728
314.687
200.835
200.192
200.833
200.191
200.839
200.151
200.837
200.151
151.001
200.623
200.016
200.62
200.014
200.623
200.01
200.619
200.007
150.968
202.095
175.888
202.084
176.016
207.457
209.236
207.456
209.231
207.457
209.236
207.456
209.231
175.883
202.209
175.882
150.467
150.913
150.466
150.916
150.466
150.912
150.466
150.916
201.94
176.025
201.827
176.023
201.952
175.871
201.825
175.856
150.471
150.917
150.454
150.918
150.47
150.917
150.452
150.917
47.5041
45.3732
47.5039
45.3741
47.5078
45.3016
47.5075
45.2948
54.2141
2.18785
18.8699
27.2135
18.8698
27.1987
18.8618
27.2213
18.861
27.2209
-0.190082
-1.58471
0.904768
-10.6044
-10.5254
-10.6073
-10.5254
-10.6074
-10.5293
-10.6109
-10.5294
-0.429946
-1.69613
76.704
165.81
71.7874
165.581
34.2334
165.812
34.1775
165.587
75.775
87.1463
75.708
87.1388
75.7141
87.194
75.6777
87.1909
58.3127
60.1857
58.3097
60.1669
58.3063
60.1855
58.3056
60.1676
76.7194
39.6833
43.971
39.6682
43.9821
39.6861
43.9855
39.6708
44.0262
56.689
40.8507
56.6006
39.6786
44.3044
39.6627
44.1481
39.6772
44.3177
39.6611
44.1322
56.6909
41.2221
56.5963
73.0361
84.4784
72.9838
84.2207
73.136
84.5428
73.2749
84.5131
11.9102
75.2812
85.8628
75.2837
85.5243
75.2829
85.8657
75.2862
85.593
103.883
111.229
86.3582
105.09
96.1481
107.201
96.1415
107.113
95.9176
104.467
95.8756
104.444
118.245
120.892
118.224
120.882
118.243
120.891
118.221
120.881
95.2059
104.49
95.1815
104.472
95.2051
104.391
95.1829
104.462
114.752
116.22
114.748
116.216
114.75
116.219
114.748
116.215
47.4461
45.1143
47.4389
45.1411
47.4504
45.1972
47.4434
45.1484
54.1754
-0.347769
-3.47438
0.338683
-4.02274
-0.33521
-2.75363
-0.0142111
-1.46012
-18.4961
-30.5172
-37.9858
-46.8403
-46.951
-46.8393
-46.9501
-46.8394
-46.9502
-46.8384
-46.9493
-18.8312
-30.8842
-48.3081
-57.7876
-48.3262
-57.7883
-48.2748
-57.7888
-48.2815
-57.787
-38.0381
-38.1961
-38.0378
-38.1951
-38.0376
-38.1866
-38.0375
-38.1853
-13.9325
-17.4536
-15.2757
-17.4399
-14.2289
-16.4166
-15.2992
-16.9336
39.6375
50.9762
1.60244
-8.79473
2.7609
7.96924
4.1404
13.3655
13.9719
13.8439
19.4418
14.1917
19.6843
14.0897
19.9782
14.1981
20.0399
24.7042
30.4885
25.7286
30.6705
24.7475
30.5562
25.7315
30.8463
99.2215
115.101
99.3582
115.108
99.2582
115.108
99.363
115.116
138.576
133.569
138.566
133.567
138.555
133.584
138.547
133.583
132.278
132.309
132.277
132.309
132.28
132.311
132.279
132.311
108.398
130.563
108.46
131.25
109.526
139.299
109.605
139.301
152.424
141.681
152.413
141.68
163.945
141.791
163.924
141.789
221.159
272.806
222.045
277.541
221.364
272.822
222.048
277.548
143.207
141.639
143.2
141.63
149.46
141.673
149.427
141.67
23.9604
22.1737
25.5622
22.1704
22.8699
25.3325
22.8564
25.337
22.8713
25.3345
22.8568
25.3386
21.7497
23.4622
21.7476
23.4635
21.7524
23.4653
21.7502
23.4666
22.8232
25.345
23.5979
25.4187
22.8255
25.3461
23.5977
25.4195
22.5357
23.3341
22.872
23.3358
22.872
23.3366
22.8726
23.3315
22.8717
26.9091
2.60905
28.1573
28.8215
28.1676
28.8215
28.1657
28.8218
28.169
28.8221
1.02381
10.101
13.7146
7.80518
10.1358
11.3538
10.1336
11.351
10.1351
11.3535
10.133
11.3504
7.80525
10.1323
11.3482
10.1297
11.345
10.1316
11.3469
10.1288
11.3432
7.80489
10.1348
11.354
10.1333
11.3506
10.1348
11.355
10.1334
11.3516
7.80528
10.1313
11.3464
10.1285
11.3427
10.132
11.347
10.1296
11.3437
4.01385
9.80905
10.5191
9.80836
10.5176
9.80909
10.521
9.8082
10.5191
57.0141
45.7298
54.8486
45.7448
59.6849
60.2042
59.6835
60.2025
59.6864
60.2059
59.6849
60.2041
45.5628
45.7458
45.5558
45.7425
45.5624
45.7581
45.5553
45.7548
55.9535
56.4954
55.9515
56.4931
55.9547
56.4968
55.9526
56.4945
45.5464
45.6004
45.5557
45.5814
45.5461
45.5995
45.5551
45.5805
26.3811
26.3921
26.3766
26.3867
26.503
26.3942
26.4953
26.3891
30.3952
30.638
30.3716
30.3992
30.3996
30.7443
30.3747
30.4067
23.9271
396.571
398.055
396.569
398.056
396.578
398.07
396.577
398.068
407.739
408.521
407.741
408.52
407.747
408.53
407.748
408.529
372.74
398.052
367.04
397.982
376.83
398.065
368.308
397.995
407.747
408.527
407.743
408.529
407.752
408.537
407.749
408.541
398.4
398.628
398.399
398.627
398.4
398.628
398.4
398.627
415.457
415.394
415.456
415.394
415.457
415.395
415.456
415.394
390.907
398.067
390.935
397.994
390.929
398.066
390.939
397.995
407.781
408.643
407.779
408.637
407.783
408.644
407.779
408.637
41.5273
41.7811
41.5219
41.836
41.5276
41.7866
41.5226
41.828
46.1261
41.5145
41.8475
41.5081
41.8666
41.5153
41.8339
41.5096
41.8609
46.4588
41.5261
41.8132
41.522
41.7999
41.5266
41.8651
41.5231
41.8622
46.3473
41.5164
41.7987
41.5126
41.8379
41.5185
41.866
41.5152
41.872
46.5522
81.2498
81.9375
81.2474
81.9339
81.2513
81.939
81.2489
81.9355
74.72
75.0939
74.7173
75.0958
74.7218
75.0957
74.7192
75.0982
67.8672
71.9192
89.9419
90.5018
89.94
90.5012
89.9438
90.5041
89.942
90.5035
79.3174
80.528
79.315
80.5187
79.32
80.5325
79.3177
80.5234
87.0065
76.905
20.998
13.9733
20.4729
13.8566
20.9999
13.9723
20.4743
13.8548
12.1522
12.0226
12.2065
11.987
12.36
12.0701
13.2912
12.0706
12.3689
15.1464
0.119054
-0.200106
0.0349873
0.0661767
0.444071
1.09803
-0.0347037
0.795821
2.97542
3.26247
3.01117
3.96452
-1.32695
2.2804
-8.64863
1.21718
4.50853
3.79224
5.08025
0.0972962
-3.12703
-1.10811
0.0985778
0.37682
0.0104901
0.512328
-3.89392
-2.89456
-2.86342
0.0336011
0.222023
-0.0181103
-1.53126
-1.96625
0.117977
0.305197
0.389259
2.70887
-0.122267
-1.66154
-0.718914
-2.38034
-1.40827
-26.7389
-42.1007
-46.2917
-42.1226
-46.3392
-42.1014
-46.2907
-42.122
-46.3385
-34.2211
-31.4623
-34.2234
-31.4653
-34.3556
-31.465
-34.358
-31.4675
22.8281
-26.2577
-38.585
-39.089
-38.5864
-39.0908
-38.5851
-39.089
-38.5871
-39.0912
-43.0294
-27.2202
-32.6055
-37.9178
-46.2304
-27.6376
-32.7362
-55.3092
-53.7056
-9.2554
-9.41873
0.688422
-10.7432
-14.4993
-10.0178
-13.9687
-5.35519
-7.79028
-4.73011
-7.69173
0.772205
-7.13837
-10.3506
-0.446117
-10.3085
-4.63764
-6.42964
-0.430472
-1.17802
-0.531613
24.2959
24.3637
24.2982
24.3642
24.2965
24.3634
24.2977
24.3638
1.6125
9.19906
9.42799
9.19475
9.426
9.19822
9.4275
9.19596
9.42648
-158.67
-159.875
-158.67
-159.875
-158.67
-159.876
-158.67
-159.876
-160.114
-160.266
-160.114
-160.266
-160.114
-160.266
-160.114
-160.267
-158.133
-159.873
-157.988
-159.857
-158.133
-159.873
-157.988
-159.857
-160.111
-160.264
-160.093
-160.25
-160.112
-160.264
-160.093
-160.25
-105.009
-129.53
-101.839
-129.441
-121.179
-121.872
-121.18
-121.877
-121.181
-121.875
-121.182
-121.88
-122.986
-123.439
-122.986
-123.438
-122.987
-123.402
-122.986
-123.401
-121.409
-122.05
-121.409
-122.049
-121.411
-122.053
-121.411
-122.053
-57.3936
-60.7699
-57.3809
-60.761
-57.4371
-60.78
-57.4252
-60.7703
-126.557
-120.013
-126.587
-59.7108
-147.19
-148.527
-147.188
-148.525
-147.19