# vtk DataFile Version 3.0
Gravity inversion using rectangular prisms
ASCII
DATASET UNSTRUCTURED_GRID

POINTS	15423	double
0	0	0
0	0	200
0	0	400
0	0	600
0	0	800
0	0	1000
0	200	0
0	200	200
0	200	400
0	200	600
0	200	800
0	200	1000
0	400	0
0	400	200
0	400	400
0	400	600
0	400	800
0	400	1000
0	600	0
0	600	200
0	600	400
0	600	600
0	600	800
0	600	1000
0	800	0
0	800	200
0	800	400
0	800	600
0	800	800
0	800	1000
0	1000	0
0	1000	200
0	1000	400
0	1000	600
0	1000	800
0	1000	1000
0	1200	0
0	1200	200
0	1200	400
0	1200	600
0	1200	800
0	1200	1000
0	1400	0
0	1400	200
0	1400	400
0	1400	600
0	1400	800
0	1400	1000
0	1600	0
0	1600	200
0	1600	400
0	1600	600
0	1600	800
0	1600	1000
0	1800	0
0	1800	200
0	1800	400
0	1800	600
0	1800	800
0	1800	1000
0	2000	0
0	2000	200
0	2000	400
0	2000	600
0	2000	800
0	2000	1000
200	0	0
200	0	200
200	0	400
200	0	600
200	0	800
200	0	1000
200	200	0
200	200	200
200	200	400
200	200	600
200	200	800
200	200	1000
200	400	0
200	400	200
200	400	300
200	400	400
200	400	600
200	400	800
200	400	1000
200	500	200
200	500	300
200	500	400
200	600	0
200	600	100
200	600	200
200	600	300
200	600	400
200	600	500
200	600	600
200	600	800
200	600	1000
200	700	0
200	700	100
200	700	200
200	700	300
200	700	400
200	700	500
200	700	600
200	800	0
200	800	100
200	800	200
200	800	300
200	800	400
200	800	500
200	800	600
200	800	800
200	800	1000
200	900	200
200	900	300
200	900	400
200	900	500
200	900	600
200	1000	0
200	1000	200
200	1000	300
200	1000	400
200	1000	500
200	1000	600
200	1000	800
200	1000	1000
200	1200	0
200	1200	200
200	1200	400
200	1200	600
200	1200	800
200	1200	1000
200	1400	0
200	1400	200
200	1400	400
200	1400	600
200	1400	800
200	1400	1000
200	1600	0
200	1600	200
200	1600	400
200	1600	600
200	1600	800
200	1600	1000
200	1800	0
200	1800	200
200	1800	400
200	1800	600
200	1800	800
200	1800	1000
200	2000	0
200	2000	200
200	2000	400
200	2000	600
200	2000	800
200	2000	1000
300	400	200
300	400	300
300	400	400
300	500	200
300	500	300
300	500	400
300	600	0
300	600	100
300	600	200
300	600	300
300	600	400
300	600	500
300	600	600
300	700	0
300	700	100
300	700	200
300	700	300
300	700	400
300	700	500
300	700	600
300	800	0
300	800	100
300	800	200
300	800	300
300	800	400
300	800	500
300	800	600
300	900	200
300	900	300
300	900	400
300	900	500
300	900	600
300	1000	200
300	1000	300
300	1000	400
300	1000	500
300	1000	600
400	0	0
400	0	200
400	0	400
400	0	600
400	0	800
400	0	1000
400	200	0
400	200	200
400	200	300
400	200	400
400	200	600
400	200	800
400	200	1000
400	300	200
400	300	300
400	300	400
400	400	0
400	400	100
400	400	200
400	400	250
400	400	300
400	400	350
400	400	400
400	400	500
400	400	600
400	400	800
400	400	1000
400	450	200
400	450	250
400	450	300
400	450	350
400	450	400
400	500	0
400	500	100
400	500	200
400	500	250
400	500	300
400	500	350
400	500	400
400	500	500
400	500	600
400	550	200
400	550	250
400	550	300
400	600	0
400	600	100
400	600	150
400	600	200
400	600	250
400	600	300
400	600	350
400	600	400
400	600	500
400	600	600
400	600	700
400	600	800
400	600	1000
400	650	100
400	650	150
400	650	200
400	650	250
400	650	300
400	650	350
400	650	400
400	700	0
400	700	100
400	700	150
400	700	200
400	700	250
400	700	300
400	700	350
400	700	400
400	700	500
400	700	600
400	700	700
400	700	800
400	750	200
400	750	250
400	750	300
400	750	350
400	750	400
400	800	0
400	800	100
400	800	200
400	800	250
400	800	300
400	800	350
400	800	400
400	800	500
400	800	600
400	800	700
400	800	800
400	800	1000
400	850	200
400	850	250
400	850	300
400	850	350
400	850	400
400	900	0
400	900	100
400	900	200
400	900	250
400	900	300
400	900	350
400	900	400
400	900	500
400	900	600
400	950	200
400	950	250
400	950	300
400	950	350
400	950	400
400	1000	0
400	1000	100
400	1000	200
400	1000	250
400	1000	300
400	1000	350
400	1000	400
400	1000	500
400	1000	600
400	1000	800
400	1000	1000
400	1100	0
400	1100	100
400	1100	200
400	1100	300
400	1100	400
400	1100	500
400	1100	600
400	1200	0
400	1200	100
400	1200	200
400	1200	300
400	1200	400
400	1200	500
400	1200	600
400	1200	800
400	1200	1000
400	1300	200
400	1300	300
400	1300	400
400	1400	0
400	1400	200
400	1400	300
400	1400	400
400	1400	600
400	1400	800
400	1400	1000
400	1600	0
400	1600	200
400	1600	400
400	1600	600
400	1600	800
400	1600	1000
400	1800	0
400	1800	200
400	1800	400
400	1800	600
400	1800	800
400	1800	1000
400	2000	0
400	2000	200
400	2000	400
400	2000	600
400	2000	800
400	2000	1000
450	400	200
450	400	250
450	400	300
450	400	350
450	400	400
450	450	200
450	450	250
450	450	300
450	450	350
450	450	400
450	500	200
450	500	250
450	500	300
450	500	350
450	500	400
450	550	200
450	550	250
450	550	300
450	600	100
450	600	150
450	600	200
450	600	250
450	600	300
450	600	350
450	600	400
450	650	100
450	650	150
450	650	200
450	650	250
450	650	300
450	650	350
450	650	400
450	700	100
450	700	150
450	700	200
450	700	250
450	700	300
450	700	350
450	700	400
450	750	200
450	750	250
450	750	300
450	750	350
450	750	400
450	800	200
450	800	250
450	800	300
450	800	350
450	800	400
450	850	200
450	850	250
450	850	300
450	850	350
450	850	400
450	900	200
450	900	250
450	900	300
450	900	350
450	900	400
450	950	200
450	950	250
450	950	300
450	950	350
450	950	400
450	1000	200
450	1000	250
450	1000	300
450	1000	350
450	1000	400
500	200	200
500	200	300
500	200	400
500	300	200
500	300	300
500	300	400
500	400	0
500	400	100
500	400	200
500	400	250
500	400	300
500	400	350
500	400	400
500	400	500
500	400	600
500	450	200
500	450	250
500	450	300
500	450	350
500	450	400
500	500	0
500	500	100
500	500	150
500	500	200
500	500	250
500	500	300
500	500	350
500	500	400
500	500	500
500	500	600
500	550	100
500	550	150
500	550	200
500	550	250
500	550	300
500	550	350
500	550	400
500	600	0
500	600	100
500	600	150
500	600	200
500	600	250
500	600	300
500	600	350
500	600	400
500	600	450
500	600	500
500	600	600
500	600	700
500	600	800
500	650	100
500	650	150
500	650	200
500	650	250
500	650	300
500	650	350
500	650	400
500	650	450
500	650	500
500	700	0
500	700	100
500	700	150
500	700	200
500	700	250
500	700	300
500	700	350
500	700	400
500	700	450
500	700	500
500	700	600
500	700	700
500	700	800
500	750	100
500	750	150
500	750	200
500	750	250
500	750	300
500	750	350
500	750	400
500	750	450
500	750	500
500	800	0
500	800	100
500	800	150
500	800	200
500	800	250
500	800	300
500	800	350
500	800	400
500	800	450
500	800	500
500	800	600
500	800	700
500	800	800
500	850	100
500	850	150
500	850	200
500	850	250
500	850	300
500	850	350
500	850	400
500	900	0
500	900	100
500	900	150
500	900	200
500	900	250
500	900	300
500	900	350
500	900	400
500	900	500
500	900	600
500	950	200
500	950	250
500	950	300
500	950	350
500	950	400
500	1000	0
500	1000	100
500	1000	200
500	1000	250
500	1000	300
500	1000	350
500	1000	400
500	1000	500
500	1000	600
500	1050	200
500	1050	250
500	1050	300
500	1050	350
500	1050	400
500	1100	0
500	1100	100
500	1100	200
500	1100	250
500	1100	300
500	1100	350
500	1100	400
500	1100	500
500	1100	600
500	1200	0
500	1200	100
500	1200	200
500	1200	300
500	1200	400
500	1200	500
500	1200	600
500	1300	200
500	1300	300
500	1300	400
500	1400	200
500	1400	300
500	1400	400
550	400	200
550	400	250
550	400	300
550	400	350
550	400	400
550	450	200
550	450	250
550	450	300
550	450	350
550	450	400
550	500	100
550	500	150
550	500	200
550	500	250
550	500	300
550	500	350
550	500	400
550	550	100
550	550	150
550	550	200
550	550	250
550	550	300
550	550	350
550	550	400
550	600	100
550	600	150
550	600	200
550	600	225
550	600	250
550	600	275
550	600	300
550	600	325
550	600	350
550	600	375
550	600	400
550	600	450
550	600	500
550	625	200
550	625	225
550	625	250
550	625	275
550	625	300
550	625	325
550	625	350
550	625	375
550	625	400
550	650	100
550	650	150
550	650	200
550	650	225
550	650	250
550	650	275
550	650	300
550	650	325
550	650	350
550	650	375
550	650	400
550	650	450
550	650	500
550	675	200
550	675	225
550	675	250
550	675	275
550	675	300
550	675	325
550	675	350
550	675	375
550	675	400
550	700	100
550	700	150
550	700	200
550	700	225
550	700	250
550	700	275
550	700	300
550	700	325
550	700	350
550	700	375
550	700	400
550	700	450
550	700	500
550	725	200
550	725	225
550	725	250
550	725	275
550	725	300
550	725	325
550	725	350
550	725	375
550	725	400
550	750	100
550	750	150
550	750	200
550	750	225
550	750	250
550	750	275
550	750	300
550	750	325
550	750	350
550	750	375
550	750	400
550	750	450
550	750	500
550	775	200
550	775	225
550	775	250
550	775	275
550	775	300
550	775	325
550	775	350
550	775	375
550	775	400
550	800	100
550	800	150
550	800	200
550	800	225
550	800	250
550	800	275
550	800	300
550	800	325
550	800	350
550	800	375
550	800	400
550	800	450
550	800	500
550	850	100
550	850	150
550	850	200
550	850	250
550	850	300
550	850	350
550	850	400
550	900	100
550	900	150
550	900	200
550	900	250
550	900	300
550	900	350
550	900	400
550	950	200
550	950	250
550	950	300
550	950	350
550	950	400
550	1000	200
550	1000	250
550	1000	300
550	1000	350
550	1000	400
550	1050	200
550	1050	250
550	1050	300
550	1050	350
550	1050	400
550	1100	200
550	1100	250
550	1100	300
550	1100	350
550	1100	400
575	600	200
575	600	225
575	600	250
575	600	275
575	600	300
575	600	325
575	600	350
575	600	375
575	600	400
575	625	200
575	625	225
575	625	250
575	625	275
575	625	300
575	625	325
575	625	350
575	625	375
575	625	400
575	650	200
575	650	225
575	650	250
575	650	275
575	650	300
575	650	325
575	650	350
575	650	375
575	650	400
575	675	200
575	675	225
575	675	250
575	675	275
575	675	300
575	675	325
575	675	350
575	675	375
575	675	400
575	700	200
575	700	225
575	700	250
575	700	275
575	700	300
575	700	325
575	700	350
575	700	375
575	700	400
575	725	200
575	725	225
575	725	250
575	725	275
575	725	300
575	725	325
575	725	350
575	725	375
575	725	400
575	750	200
575	750	225
575	750	250
575	750	275
575	750	300
575	750	325
575	750	350
575	750	375
575	750	400
575	775	200
575	775	225
575	775	250
575	775	275
575	775	300
575	775	325
575	775	350
575	775	375
575	775	400
575	800	200
575	800	225
575	800	250
575	800	275
575	800	300
575	800	325
575	800	350
575	800	375
575	800	400
600	0	0
600	0	200
600	0	400
600	0	600
600	0	800
600	0	1000
600	200	0
[...]
CELL_DATA	11623
SCALARS model double 1
LOOKUP_TABLE table0
0.0221745
0.884506
-5.19499
-1.9128
-2.73201
0.120496
-1.74263
1.10341
-0.940699
-2.23886
0.0118465
0.175436
-0.66648
-2.07888
-1.76759
0.0658447
-0.914657
-14.24
-3.85626
-1.67622
0.0413339
-1.89585
2.14072
-0.906786
-1.08927
0.112627
-3.27997
0.272435
0.204663
-0.658177
0.0484704
0.321826
-7.86569
-1.61292
-0.749899
0.167404
-1.8145
-6.91008
-1.70412
-0.80728
0.0419169
0.353103
1.86919
-0.266476
-1.88529
0.105286
-2.46603
3.48384
1.49115
-1.35084
0.052552
-0.631866
0.24459
-1.58221
-2.18411
0.0375801
-0.782749
-3.26642
-0.84485
-1.11329
0.0432982
-0.893587
-10.8756
6.5637
-8.28582
-2.90402
-11.3063
-26.0243
-18.2333
-5.5485
1.75599
2.54458
0.0403268
0.478435
0.00353632
0.639535
0.175043
-1.7903
0.0711715
-1.19125
-6.0672
-6.81042
-5.90087
-6.75897
-8.32238
-6.94219
-7.72929
-6.86923
-1.08517
-1.04668
-1.07411
-1.03819
-1.02783
-1.02776
-1.02104
-1.02189
2.32338
3.09303
0.0241981
4.5874
-11.0654
0.599617
-15.1064
-30.0254
-21.7346
-5.16556
-16.0058
-0.697739
-0.643122
-0.687375
-0.640531
-0.64071
-0.631373
-0.641304
-0.630062
2.7237
3.09486
0.000448743
-3.00518
0.691383
2.09832
2.25659
0.0191027
-2.00975
1.96228
1.12321
1.12155
0.123206
0.0832708
-0.420807
-0.233531
-0.460374
-0.0240079
0.247472
-4.05272
-1.66276
-2.42063
0.0152732
0.5924
-2.07693
-0.802912
-2.32525
-0.0243813
0.89406
-5.74631
-2.16862
-0.25157
0.00513221
-5.78787
-4.46771
-1.2364
-3.89827
-4.32159
-4.26362
-4.54459
-4.1953
0.657708
2.22396
3.26961
0.0639695
-1.11679
-0.0516753
1.694
0.593005
-0.0525554
0.388053
0.00172491
0.0700847
0.294641
0.161157
0.00206635
0.0758426
0.0449208
0.10825
-28.6877
-28.6945
-28.7513
-28.7085
-28.6198
-28.6667
-28.6827
-28.6812
35.3494
35.3514
35.3499
35.3548
35.3665
35.3621
35.3672
35.3659
16.4946
16.5029
16.5834
16.5371
16.5092
16.5183
16.5676
16.5433
40.1954
-0.0627436
-0.0868062
-0.0857993
-0.0892971
-0.124845
-0.11345
-0.0937015
-0.0926671
40.6027
40.5988
40.6071
40.6046
40.6074
40.6042
40.6142
40.611
79.6686
79.6834
79.7017
79.6912
79.6755
79.6883
79.7133
79.7136
56.9087
56.9056
56.9119
56.9102
56.9132
56.9117
56.9317
56.9269
23.5589
23.4871
23.4849
23.4836
23.5194
23.4935
23.5345
23.5097
14.6181
8.37407
0.538953
-17.8498
-18.45
-18.1143
-18.5184
-18.4169
-18.5637
-18.6054
-18.6023
-0.123071
-11.2324
-0.962831
50.6743
50.6501
50.2308
50.5361
50.5563
50.6287
50.507
50.5883
-1.32186
45.5931
46.0387
45.6382
46.0246
46.0825
46.1189
46.0139
46.0816
19.5671
19.513
19.5607
19.5191
19.5541
19.5193
19.5574
19.5273
58.197
58.19
58.2027
58.1953
58.2061
58.1984
58.2117
58.2033
21.0252
20.9879
21.0363
20.9889
21.0161
20.9935
21.0057
20.9871
58.56
58.5539
58.5587
58.5525
58.5677
58.5613
58.5639
58.559
96.1411
94.6946
95.2455
94.4965
96.8239
96.8291
96.8192
96.8253
96.8342
96.839
96.8302
96.8355
95.2616
95.2616
95.2609
95.2613
95.2708
95.2701
95.2704
95.27
96.2026
96.208
96.2011
96.2072
96.2144
96.2187
96.2134
96.2181
95.1679
95.1677
95.1701
95.1701
95.1776
95.1766
95.1799
95.179
78.9573
78.7243
78.9538
78.7686
79.3166
79.3167
79.3198
79.3196
79.3244
79.3238
79.3277
79.3269
78.9308
78.9316
78.934
78.9345
78.9373
78.9376
78.9406
78.9406
79.3681
79.3684
79.3737
79.3736
79.3762
79.3758
79.3818
79.381
79.0054
79.0062
79.0106
79.0111
79.012
79.0124
79.0173
79.0172
96.8103
96.1661
97.2263
96.1783
97.8423
97.8503
97.8546
97.8616
97.8549
97.8613
97.8672
97.8726
96.8737
96.875
96.8786
96.8796
96.8835
96.8838
96.8883
96.8884
98.2192
98.228
98.2203
98.2291
98.2317
98.2387
98.2328
98.2398
96.8645
96.8655
96.8601
96.8617
96.874
96.874
96.8695
96.8701
79.7638
79.6134
79.721
79.5806
80.2005
80.2012
80.2036
80.2042
80.2086
80.2085
80.2116
80.2115
79.8643
79.8654
79.8675
79.8684
79.871
79.8715
79.8741
79.8745
80.134
80.1342
80.1294
80.1301
80.1418
80.1414
80.1371
80.1371
79.8158
79.8164
79.8123
79.8132
79.8223
79.8224
79.8187
79.8191
46.6732
47.1043
46.7542
47.1661
48.2286
48.2307
48.2335
48.2353
48.2458
48.2409
48.2516
48.2461
47.5957
48.3369
48.3388
48.3397
48.34
48.3541
48.3492
48.3551
48.3495
47.7075
17.8629
17.8558
17.8635
17.8571
17.8738
17.8619
17.874
17.8631
9.93247
0.188787
-1.88148
0.172679
-1.5549
1.39743
-1.319
-1.18506
-1.46635
-1.26846
-1.20093
-1.14348
-1.1359
-1.16286
0.446642
-2.79152
6.75451
6.7139
6.70147
6.69471
6.70705
6.70384
6.65495
6.68056
40.5782
40.5716
40.5668
40.5631
40.5803
40.577
40.5668
40.5675
-24.2818
-24.2872
-24.2708
-24.2956
-24.3257
-24.3046
-24.3102
-24.3083
37.0734
37.0713
37.0625
37.0637
37.0729
37.0752
37.0635
37.0678
80.4902
80.5472
80.4383
80.5313
80.5295
80.5699
80.4895
80.5444
60.3934
60.3947
60.3869
60.3888
60.4128
60.4126
60.3941
60.3967
24.3768
24.4154
24.4092
24.4114
24.3949
24.4223
24.379
24.407
48.0776
48.0841
48.0679
48.076
48.0836
48.0896
48.074
48.0817
32.5876
32.533
32.596
32.5255
32.6183
32.5614
32.5952
32.5465
16.4466
9.66345
0.0759607
0.19619
0.0310335
-0.377575
0.153682
-0.556998
0.0645416
-0.121141
-14.1978
-16.1425
9.29255
-12.6648
-30.7927
-30.7841
-30.7926
-30.7817
-30.7967
-30.7838
-30.7947
-30.781
-19.9638
-19.9619
-19.9624
-19.9616
-19.9628
-19.9607
-19.9612
-19.9603
4.82942
-14.2506
1.36405
1.3643
1.37316
1.36386
1.36681
1.36893
1.38212
1.36941
5.99996
7.36198
0.0698967
-13.3919
-22.5837
13.3964
-20.7721
-8.39113
-22.5495
1.48877
-21.3114
5.76511
3.71428
4.26912
0.140389
-6.90946
-0.724195
1.02346
1.30323
0.0292898
1.48895
-4.86139
-2.32487
-2.21666
0.0921999
-1.76159
-1.39494
-2.02458
-2.5992
-0.0201399
0.685918
-10.9155
-2.76544
0.0809314
0.0185201
0.145912
0.291917
-1.28221
-0.00584854
0.755374
0.135767
-1.78581
-3.77328
-5.93135
-11.1821
-11.2062
-11.1839
-11.1983
-11.2804
-11.2375
-11.2309
-11.2169
-6.99882
-7.00056
-6.99079
-6.99447
-7.01066
-7.00537
-6.99867
-6.99777
-4.24127
-6.41779
-8.32736
-8.27322
-8.27063
-8.24832
-8.25943
-8.2528
-8.23749
-8.23495
-6.61605
-6.60615
-6.60181
-6.59747
-6.60715
-6.60029
-6.59462
-6.59218
8.00645
8.03319
7.95217
8.02579
7.87755
7.99009
7.91953
8.00734
3.15433
3.63433
1.80173
0.724994
0.687216
0.630914
0.680664
0.895361
0.692497
0.804869
0.714034
6.91792
56.6637
56.8891
56.7495
56.9364
57.1704
57.0181
57.2675
57.0609
3.08195
12.6143
12.4667
12.5968
12.5034
12.4076
12.4398
12.4262
12.4656
14.2631
27.3059
27.1444
27.5227
27.2207
27.0027
27.093
27.4901
27.2192
76.2253
76.3058
76.3631
76.3811
76.2698
76.3204
76.417
76.4024
76.3062
76.3028
76.3175
76.3123
76.3072
76.3056
76.321
76.3161
120.049
118.747
121.122
121.126
121.13
121.134
121.12
121.125
121.129
121.132
119.597
119.596
119.604
119.603
119.596
119.596
119.603
119.602
119.604
118.733
120.44
120.442
120.449
120.45
120.431
120.433
120.439
120.441
119.438
119.437
119.445
119.443
119.431
119.43
119.438
119.437
90.2583
90.1494
90.8021
90.8021
90.8095
90.809
90.8052
90.8049
90.8128
90.8119
90.4654
90.466
90.4717
90.4718
90.4685
90.4688
90.4749
90.4748
90.3534
90.2358
90.8186
90.8182
90.8264
90.8253
90.8242
90.8232
90.8321
90.8304
90.5196
90.52
90.5261
90.526
90.5248
90.5247
90.5314
90.5308
92.8199
92.8402
92.896
92.8846
92.8235
92.8455
92.8823
92.8821
81.8433
81.8448
81.8582
81.8558
81.8415
81.8434
81.8552
81.8538
115.731
115.169
116.321
116.321
116.332
116.331
116.309
116.31
116.321
116.321
115.7
115.698
115.707
115.705
115.692
115.691
115.699
115.698
115.452
115.093
115.934
115.934
115.947
115.945
115.921
115.923
115.934
115.933
115.505
115.503
115.512
115.51
115.497
115.496
115.504
115.503
91.2209
91.1075
91.5862
91.5857
91.5941
91.5929
91.5896
91.5888
91.5975
91.596
91.3441
91.3445
91.3507
91.3506
91.3479
91.348
91.3545
91.3541
91.2382
91.1365
91.5195
91.5182
91.5274
91.5255
91.5137
91.513
91.5216
91.5202
91.3257
91.3257
91.3323
91.3318
91.3218
91.3221
91.3283
91.3281
71.1094
71.1079
71.1159
71.1133
71.1071
71.1097
71.114
71.1153
72.2998
72.2996
72.3042
72.3033
72.3018
72.3015
72.3063
72.3052
73.2915
73.2913
73.3086
73.302
73.299
73.2977
73.3179
73.3096
72.9472
72.9463
72.9522
72.9508
72.9464
72.9484
72.9515
72.9529
72.0348
72.5057
72.5066
72.5066
72.5098
72.5052
72.5062
72.5061
72.5093
73.6635
73.6628
73.6819
73.674
73.6641
73.6628
73.6824
73.674
73.1561
19.2908
19.2846
19.3074
19.2955
19.2865
19.2824
19.3044
19.2945
8.96426
12.3064
60.9863
61.0359
61.0497
61.0371
61.0506
61.047
61.0578
61.0475
61.0586
60.9718
60.9997
61.0115
60.9876
61.0007
61.0102
61.02
60.9977
61.0092
61.3351
61.055
61.0617
61.0543
61.0624
61.0554
61.0597
61.0532
61.0599
61.1293
61.0239
61.0324
61.0111
61.0219
61.0219
61.03
61.0081
61.0191
12.9065
60.5825
60.5384
60.5489
60.5318
60.5428
60.5481
60.5573
60.5417
60.5513
60.5837
60.5583
60.571
60.5533
60.5672
60.5677
60.579
60.5636
60.5756
60.6588
60.5576
60.5663
60.5504
60.5596
60.554
60.5632
60.5472
60.5569
60.6802
60.5651
60.5745
60.561
60.5707
60.5618
60.5713
60.5587
60.5679
27.1579
52.4161
51.9201
51.9199
51.9177
51.9203
51.9146
51.9148
51.9128
51.9157
52.0902
51.8932
51.8979
51.8963
51.9024
51.8894
51.8942
51.8927
51.899
52.4578
51.9114
51.9108
51.9117
51.9131
51.904
51.9036
51.9057
51.9068
52.2391
51.8993
51.9031
51.9044
51.9092
51.8957
51.8983
51.9021
51.905
26.0535
52.6872
52.5599
52.5688
52.571
52.5778
52.5576
52.5663
52.5699
52.5759
52.9206
52.5869
52.5924
52.5848
52.589
52.5872
52.5912
52.5857
52.5879
52.9288
52.5781
52.5851
52.5915
52.5953
52.5774
52.5821
52.5914
52.5927
53.2896
52.6123
52.6139
52.6111
52.6108
52.6127
52.6116
52.6114
52.6085
378.824
378.83
378.828
378.834
378.832
378.837
378.836
378.84
378.802
378.802
378.806
378.806
378.808
378.808
378.811
378.811
378.815
378.821
378.812
378.818
378.823
378.828
378.82
378.825
378.802
378.802
378.8
378.8
378.805
378.81
378.803
378.808
378.835
378.838
378.839
378.843
378.832
378.836
378.836
378.84
378.825
378.824
378.826
378.83
378.822
378.822
378.823
378.827
378.832
378.836
378.828
378.834
378.829
378.834
378.826
378.831
378.856
371.284
371.284
371.288
371.287
371.288
371.288
371.292
371.292
371.275
371.275
371.278
371.278
371.278
371.278
371.281
371.281
371.288
371.288
371.291
371.29
371.29
371.294
371.293
371.297
371.279
371.279
371.281
371.281
371.283
371.283
371.285
371.285
371.292
371.292
371.294
371.298
371.29
371.289
371.291
371.295
371.281
371.281
371.284
371.285
371.279
371.279
371.282
371.283
371.33
371.293
371.293
371.295
371.295
371.291
371.291
371.293
371.293
378.732
378.737
378.728
378.735
378.74
378.744
378.737
378.742
378.719
378.719
378.717
378.717
378.722
378.727
378.72
378.725
378.729
378.736
378.724
378.731
378.738
378.743
378.733
378.738
378.712
378.713
378.708
378.709
378.718
378.719
378.714
378.715
378.75
378.754
378.747
378.752
378.748
378.752
378.745
378.75
378.785
378.747
378.751
378.742
378.747
378.745
378.749
378.74
378.744
378.742
378.741
378.739
378.739
378.739
378.739
378.737
378.737
371.519
371.519
371.522
371.522
371.521
371.526
371.524
371.528
371.512
371.513
371.515
371.515
371.516
371.516
371.518
371.518
371.518
371.518
371.515
371.515
371.523
371.522
371.519
371.519
371.512
371.512
371.509
371.509
371.516
371.516
371.513
371.513
371.565
371.528
371.529
371.53
371.531
371.528
371.528
371.529
371.53
371.529
371.529
371.527
371.527
371.528
371.528
371.526
371.526
371.521
371.521
371.518
371.518
371.521
371.52
371.518
371.517
375.711
375.713
375.716
375.718
375.708
375.71
375.713
375.714
375.71
375.709
375.712
375.715
375.706
375.706
375.708
375.711
375.715
375.717
375.719
375.722
375.711
375.714
375.716
375.719
375.766
375.702
375.703
375.707
375.708
375.696
375.698
375.702
375.704
375.678
375.676
375.68
375.683
375.674
375.672
375.675
375.679
375.71
375.712
375.715
375.717
375.706
375.708
375.711
375.713
375.758
370.901
370.9
370.902
370.906
370.898
370.897
370.899
370.903
370.889
370.888
370.892
370.892
370.886
370.886
370.89
370.89
370.954
370.906
370.906
370.909
370.908
370.904
370.904
370.906
370.906
370.895
370.894
370.897
370.9
370.891
370.891
370.893
370.896
370.885
370.884
370.888
370.888
370.882
370.881
370.885
370.885
370.945
370.891
370.891
370.894
370.894
370.888
370.888
370.891
370.891
376.477
376.481
376.482
376.486
376.474
376.478
376.48
376.483
376.531
376.483
376.485
376.478
376.481
376.48
376.482
376.476
376.478
376.485
376.484
376.483
376.482
376.482
376.481
376.48
376.479
376.477
376.48
376.482
376.484
376.473
376.476
376.479
376.481
376.528
376.484
376.485
376.479
376.48
376.48
376.481
376.475
376.476
376.456
376.453
376.453
376.451
376.452
376.45
376.45
376.448
371.473
371.426
371.426
371.428
371.428
371.425
371.425
371.427
371.427
371.425
371.424
371.423
371.422
371.424
371.423
371.422
371.421
371.415
371.415
371.412
371.412
371.414
371.414
371.411
371.411
371.467
371.411
371.411
371.414
371.414
371.408
371.409
371.411
371.411
371.424
371.422
371.422
371.42
371.42
371.419
371.418
371.417
371.414
371.413
371.411
371.41
371.411
371.41
371.408
371.407
99.7975
99.798
99.7993
99.7998
99.7992
99.8003
99.8011
99.8021
99.8023
99.801
99.8014
99.8037
99.8039
99.8028
99.8038
99.8056
99.8064
99.8131
99.8078
99.8081
99.8094
99.8095
99.8094
99.8095
99.811
99.811
99.8136
99.8146
99.8147
99.8168
99.8168
99.8163
99.8162
99.8185
99.8183
99.8253
98.488
98.4865
98.4916
98.4897
98.4899
98.4883
98.4935
98.4915
100.076
100.076
100.078
100.079
100.078
100.079
100.08
100.081
100.085
100.077
100.077
100.075
100.075
100.079
100.08
100.076
100.078
100.084
100.09
100.091
100.092
100.093
100.093
100.093
100.095
100.095
100.098
100.092
100.093
100.09
100.091
100.095
100.095
100.093
100.093
100.097
98.662
98.6606
98.6613
98.6601
98.6641
98.6625
98.6635
98.6621
99.9536
99.954
99.9552
99.9555
99.955
99.9552
99.9566
99.9567
99.9554
99.9604
99.9606
99.9629
99.9629
99.9618
99.9619
99.9644
99.9643
99.9678
99.9483
99.9484
99.9501
99.9508
99.9449
99.9453
99.9467
99.9476
99.9543
99.9628
99.9629
99.9654
99.9653
99.9597
99.96
99.9624
99.9624
99.9665
98.6387
98.6375
98.6414
98.6399
98.6377
98.6367
98.6404
98.6391
100.327
100.328
100.33
100.33
100.329
100.33
100.332
100.332
100.331
100.33
100.331
100.328
100.329
100.332
100.332
100.33
100.33
100.33
100.331
100.332
100.334
100.334
100.328
100.329
100.331
100.331
100.331
100.324
100.323
100.321
100.321
100.32
100.32
100.318
100.318
100.33
98.8365
98.8355
98.8361
98.8352
98.8357
98.8349
98.8354
98.8346
25.3829
25.3823
25.384
25.3833
25.3837
25.3832
25.3849
25.3842
25.3951
25.3919
25.3913
25.3906
25.3901
25.3928
25.3921
25.3915
25.391
25.4005
25.3919
25.3914
25.393
25.3924
25.3904
25.3901
25.3915
25.3911
25.3979
25.4015
25.401
25.4003
25.3999
25.4001
25.3997
25.3988
25.3986
25.4043
10.9761
7.44286
55.8951
55.997
55.9687
55.9764
56.1545
56.0981
56.1515
56.0656
1.61744
3.03537
3.00306
2.93123
2.97384
3.08738
3.03939
3.10579
3.02816
16.7176
30.3622
30.2118
30.1201
30.13
30.5654
30.2784
30.1314
30.1464
2.94791
15.2337
115.888
115.892
115.878
115.89
115.887
115.891
115.878
115.889
114.541
114.541
114.533
114.539
114.544
114.544
114.536
114.542
115.032
113.965
115.473
115.476
115.464
115.474
115.476
115.477
115.466
115.475
114.556
114.555
114.548
114.553
114.562
114.56
114.553
114.558
114.894
114.106
86.4305
86.4305
86.4225
86.4289
86.4358
86.4351
86.4277
86.4335
86.11
86.1104
86.1032
86.109
86.1141
86.1139
86.1071
86.1125
86.0955
85.9225
86.5292
86.5287
86.5211
86.527
86.5371
86.5356
86.5288
86.5338
86.2055
86.2056
86.1985
86.2041
86.2117
86.2111
86.2046
86.2096
86.2474
86.0343
78.9707
78.9862
78.9345
78.9627
79.0384
79.0206
79.0112
78.995
74.1768
74.1783
74.167
74.1703
74.186
74.1849
74.1758
74.1767
116.705
116.708
116.695
116.705
116.709
116.71
116.698
116.708
116.066
116.064
116.057
116.063
116.069
116.067
116.061
116.066
116.229
115.694
116.582
116.582
116.571
116.579
116.574
116.574
116.563
116.571
115.995
115.992
115.986
115.99
115.989
115.987
115.98
115.985
116.139
115.661
88.0056
88.0045
87.9973
88.0026
88.0101
88.0086
88.0017
88.0066
87.7116
87.7114
87.7045
87.7099
87.7158
87.7153
87.7086
87.7137
87.7614
87.5519
87.9752
87.9733
87.9667
87.9713
87.9703
87.9688
87.9618
87.9668
87.7057
87.7051
87.6985
87.7035
87.7019
87.7016
87.6947
87.7
87.7573
87.5585
83.342
83.3154
83.3108
83.2854
83.3289
83.3119
83.2762
83.2744
75.3486
75.3475
75.3378
75.3391
75.349
75.3479
75.3377
75.3393
69.5775
69.5673
69.5607
69.561
69.5871
69.5753
69.5697
69.5683
68.7519
68.2509
68.2505
68.2452
68.2457
68.2545
68.2535
68.2487
68.2486
68.2175
68.2172
68.2145
68.2147
68.2194
68.219
68.2164
68.2164
69.9756
69.9636
69.9572
69.956
69.9765
69.9636
69.9569
69.9557
68.9292
68.5235
68.5231
68.5176
68.5182
68.5234
68.523
68.5175
68.5181
68.3392
68.3391
68.3362
68.3365
68.3384
68.3384
68.3355
68.3359
20.0522
20.0386
20.0403
20.0318
20.0539
20.0397
20.0419
20.0332
10.4502
-0.0897613
0.19041
0.119443
-0.197125
0.0438834
2.01137
-0.040026
1.25696
-17.1716
-17.1471
-17.1992
-17.1587
-17.1298
-17.1369
-17.1473
-17.1468
3.55772
3.56421
3.55322
3.55999
3.55871
3.56418
3.5526
3.55919
4.4878
2.06287
-38.0466
-38.1034
-38.0708
-38.1306
-38.1047
-38.1218
-38.1375
-38.1501
0.333773
0.33574
0.326537
0.330137
0.332139
0.334843
0.324597
0.329045
-48.8096
-48.8204
-48.8287
-48.8228
-48.8316
-48.8252
-48.8412
-48.8255
-5.39234
-1.74418
-1.7483
-1.79415
-1.77213
-1.74361
-1.74326
-1.78704
-1.76102
10.6152
9.36327
0.0747006
-0.173267
-0.0450384
-0.499326
0.0635772
-1.18726
-0.238592
2.49293
-2.53502
3.82418
-10.9698
5.51903
-9.3631
-9.33948
-9.33661
-9.32004
-9.3495
-9.33714
-9.31557
-9.31547
1.31154
22.8543
22.8385
22.9188
22.8542
22.8601
22.8448
22.8924
22.8556
8.8293
3.08535
3.06431
3.08365
3.06118
3.07693
3.06651
3.08987
3.06623
8.35043
8.86929
-0.0204859
-0.124844
0.0623586
0.276326
-0.418
1.91052
0.167024
-0.343978
-0.968921
18.2669
-2.56785
16.3981
7.29601
7.23762
7.2131
7.20316
7.26775
7.23801
7.20663
7.20567
19.3562
-16.8725
-16.8668
-16.9281
-16.8956
-16.8846
-16.8703
-16.9488
-16.9024
13.9906
1.68893
1.67692
1.66087
1.6614
1.69575
1.68371
1.648
1.66415
5.87005
7.26205
0.0902473
-2.81317
-2.82007
-2.40168
-2.74859
-4.03454
-3
-2.94611
-2.8341
-5.61844
-0.638192
1.25798
0.0563026
1.49452
-11.0881
-3.01722
-0.10421
-0.0123194
0.0897687
-2.73849
0.607172
1.06472
-0.0284098
-0.4381
-0.195306
1.90905
-0.0147168
0.111553
-0.0622207
1.12953
-2.21258
2.2147
-7.04788
-7.0708
-7.05196
-7.06271
-7.03286
-7.05557
-7.0459
-7.05642
0.588043
0.595111
0.595923
0.600872
0.598458
0.60127
0.600361
0.603621
3.74573
0.232356
-26.7054
-26.7444
-26.7536
-26.7626
-26.805
-26.7703
-26.8099
-26.7839
-0.00654385
-0.008784
-0.0104892
-0.00965199
-0.00347263
-0.0064488
-0.0114846
-0.00968822
2.64597
2.66947
2.67112
2.68386
2.70633
2.67631
2.69088
2.68428
3.52166
3.62493
2.06401
0.429513
0.48202
0.475228
0.494308
0.308312
0.444037
0.473585
0.470091
7.23139
73.7388
73.7637
73.9825
73.8338
73.7701
73.7419
73.9015
73.7827
0.55329
-2.03007
2.16568
5.10687
4.9971
5.02499
4.97475
4.91277
4.91774
4.29834
4.79934
68.9668
68.9832
69.0017
69.008
68.9495
68.9714
68.9741
68.988
76.5929
76.5937
76.6038
76.6026
76.5857
76.5877
76.5936
76.5948
90.9809
90.9366
91.0228
91.0243
91.029
91.0297
91.016
91.0184
91.0222
91.0238
90.9592
90.9585
90.9639
90.9628
90.9547
90.9545
90.9593
90.9587
90.9059
90.8904
90.9254
90.9273
90.9314
90.9326
90.918
90.9211
90.9237
90.9261
90.9037
90.9034
90.9082
90.9076
90.8989
90.8992
90.9034
90.9033
85.2946
85.2815
85.3095
85.3091
85.3132
85.3125
85.3062
85.3061
85.3099
85.3095
85.2927
85.2928
85.2958
85.2956
85.2901
85.2904
85.2931
85.2932
85.2673
85.2642
85.2773
85.2773
85.281
85.2806
85.2739
85.2742
85.2776
85.2776
85.2737
85.274
85.2766
85.2767
85.271
85.2716
85.274
85.2743
61.9829
62.0087
62.0078
62.0235
61.9512
61.9859
61.9826
62.0037
72.1291
72.1346
72.1402
72.1443
72.1152
72.1249
72.1268
72.1343
67.4645
67.7288
67.6362
67.641
67.6441
67.6485
67.6217
67.6292
67.6286
67.6361
67.8207
67.8236
67.8251
67.8277
67.814
67.8177
67.8182
67.8217
66.8095
67.4412
66.6374
66.6449
66.6408
66.6491
66.6263
66.6356
66.6292
66.6396
67.3502
67.3557
67.3552
67.3606
67.3431
67.3493
67.3481
67.3542
75.0074
75.035
75.0679
75.0704
75.0715
75.0738
75.0629
75.066
75.0665
75.0693
75.0842
75.0845
75.0872
75.0873
75.0805
75.0812
75.0836
75.084
74.8549
74.9404
74.8122
74.8165
74.8172
74.8212
74.8069
74.8117
74.8119
74.8164
74.9308
74.9315
74.9352
74.9356
74.927
74.928
74.9314
74.9321
45.0744
45.0775
45.9482
45.9474
45.9606
45.9554
45.9378
45.9388
45.9496
45.9465
45.4893