# vtk DataFile Version 3.0
Gravity effects
ASCII
DATASET UNSTRUCTURED_GRID

POINTS	1681	double
0	0	-0.1
50	0	-0.1
100	0	-0.1
150	0	-0.1
200	0	-0.1
250	0	-0.1
300	0	-0.1
350	0	-0.1
400	0	-0.1
450	0	-0.1
500	0	-0.1
550	0	-0.1
600	0	-0.1
650	0	-0.1
700	0	-0.1
750	0	-0.1
800	0	-0.1
850	0	-0.1
900	0	-0.1
950	0	-0.1
1000	0	-0.1
1050	0	-0.1
1100	0	-0.1
1150	0	-0.1
1200	0	-0.1
1250	0	-0.1
1300	0	-0.1
1350	0	-0.1
1400	0	-0.1
1450	0	-0.1
1500	0	-0.1
1550	0	-0.1
1600	0	-0.1
1650	0	-0.1
1700	0	-0.1
1750	0	-0.1
1800	0	-0.1
1850	0	-0.1
1900	0	-0.1
1950	0	-0.1
2000	0	-0.1
0	50	-0.1
50	50	-0.1
100	50	-0.1
150	50	-0.1
200	50	-0.1
250	50	-0.1
300	50	-0.1
350	50	-0.1
400	50	-0.1
450	50	-0.1
500	50	-0.1
550	50	-0.1
600	50	-0.1
650	50	-0.1
700	50	-0.1
750	50	-0.1
800	50	-0.1
850	50	-0.1
900	50	-0.1
950	50	-0.1
1000	50	-0.1
1050	50	-0.1
1100	50	-0.1
1150	50	-0.1
1200	50	-0.1
1250	50	-0.1
1300	50	-0.1
1350	50	-0.1
1400	50	-0.1
1450	50	-0.1
1500	50	-0.1
1550	50	-0.1
1600	50	-0.1
1650	50	-0.1
1700	50	-0.1
1750	50	-0.1
1800	50	-0.1
1850	50	-0.1
1900	50	-0.1
1950	50	-0.1
2000	50	-0.1
0	100	-0.1
50	100	-0.1
100	100	-0.1
150	100	-0.1
200	100	-0.1
250	100	-0.1
300	100	-0.1
350	100	-0.1
400	100	-0.1
450	100	-0.1
500	100	-0.1
550	100	-0.1
600	100	-0.1
650	100	-0.1
700	100	-0.1
750	100	-0.1
800	100	-0.1
850	100	-0.1
900	100	-0.1
950	100	-0.1
1000	100	-0.1
1050	100	-0.1
1100	100	-0.1
1150	100	-0.1
1200	100	-0.1
1250	100	-0.1
1300	100	-0.1
1350	100	-0.1
1400	100	-0.1
1450	100	-0.1
1500	100	-0.1
1550	100	-0.1
1600	100	-0.1
1650	100	-0.1
1700	100	-0.1
1750	100	-0.1
1800	100	-0.1
1850	100	-0.1
1900	100	-0.1
1950	100	-0.1
2000	100	-0.1
0	150	-0.1
50	150	-0.1
100	150	-0.1
150	150	-0.1
200	150	-0.1
250	150	-0.1
300	150	-0.1
350	150	-0.1
400	150	-0.1
450	150	-0.1
500	150	-0.1
550	150	-0.1
600	150	-0.1
650	150	-0.1
700	150	-0.1
750	150	-0.1
800	150	-0.1
850	150	-0.1
900	150	-0.1
950	150	-0.1
1000	150	-0.1
1050	150	-0.1
1100	150	-0.1
1150	150	-0.1
1200	150	-0.1
1250	150	-0.1
1300	150	-0.1
1350	150	-0.1
1400	150	-0.1
1450	150	-0.1
1500	150	-0.1
1550	150	-0.1
1600	150	-0.1
1650	150	-0.1
1700	150	-0.1
1750	150	-0.1
1800	150	-0.1
1850	150	-0.1
1900	150	-0.1
1950	150	-0.1
2000	150	-0.1
0	200	-0.1
50	200	-0.1
100	200	-0.1
150	200	-0.1
200	200	-0.1
250	200	-0.1
300	200	-0.1
350	200	-0.1
400	200	-0.1
450	200	-0.1
500	200	-0.1
550	200	-0.1
600	200	-0.1
650	200	-0.1
700	200	-0.1
750	200	-0.1
800	200	-0.1
850	200	-0.1
900	200	-0.1
950	200	-0.1
1000	200	-0.1
1050	200	-0.1
1100	200	-0.1
1150	200	-0.1
1200	200	-0.1
1250	200	-0.1
1300	200	-0.1
1350	200	-0.1
1400	200	-0.1
1450	200	-0.1
1500	200	-0.1
1550	200	-0.1
1600	200	-0.1
1650	200	-0.1
1700	200	-0.1
1750	200	-0.1
1800	200	-0.1
1850	200	-0.1
1900	200	-0.1
1950	200	-0.1
2000	200	-0.1
0	250	-0.1
50	250	-0.1
100	250	-0.1
150	250	-0.1
200	250	-0.1
250	250	-0.1
300	250	-0.1
350	250	-0.1
400	250	-0.1
450	250	-0.1
500	250	-0.1
550	250	-0.1
600	250	-0.1
650	250	-0.1
700	250	-0.1
750	250	-0.1
800	250	-0.1
850	250	-0.1
900	250	-0.1
950	250	-0.1
1000	250	-0.1
1050	250	-0.1
1100	250	-0.1
1150	250	-0.1
1200	250	-0.1
1250	250	-0.1
1300	250	-0.1
1350	250	-0.1
1400	250	-0.1
1450	250	-0.1
1500	250	-0.1
1550	250	-0.1
1600	250	-0.1
1650	250	-0.1
1700	250	-0.1
1750	250	-0.1
1800	250	-0.1
1850	250	-0.1
1900	250	-0.1
1950	250	-0.1
2000	250	-0.1
0	300	-0.1
50	300	-0.1
100	300	-0.1
150	300	-0.1
200	300	-0.1
250	300	-0.1
300	300	-0.1
350	300	-0.1
400	300	-0.1
450	300	-0.1
500	300	-0.1
550	300	-0.1
600	300	-0.1
650	300	-0.1
700	300	-0.1
750	300	-0.1
800	300	-0.1
850	300	-0.1
900	300	-0.1
950	300	-0.1
1000	300	-0.1
1050	300	-0.1
1100	300	-0.1
1150	300	-0.1
1200	300	-0.1
1250	300	-0.1
1300	300	-0.1
1350	300	-0.1
1400	300	-0.1
1450	300	-0.1
1500	300	-0.1
1550	300	-0.1
1600	300	-0.1
1650	300	-0.1
1700	300	-0.1
1750	300	-0.1
1800	300	-0.1
1850	300	-0.1
1900	300	-0.1
1950	300	-0.1
2000	300	-0.1
0	350	-0.1
50	350	-0.1
100	350	-0.1
150	350	-0.1
200	350	-0.1
250	350	-0.1
300	350	-0.1
350	350	-0.1
400	350	-0.1
450	350	-0.1
500	350	-0.1
550	350	-0.1
600	350	-0.1
650	350	-0.1
700	350	-0.1
750	350	-0.1
800	350	-0.1
850	350	-0.1
900	350	-0.1
950	350	-0.1
1000	350	-0.1
1050	350	-0.1
1100	350	-0.1
1150	350	-0.1
1200	350	-0.1
1250	350	-0.1
1300	350	-0.1
1350	350	-0.1
1400	350	-0.1
1450	350	-0.1
1500	350	-0.1
1550	350	-0.1
1600	350	-0.1
1650	350	-0.1
1700	350	-0.1
1750	350	-0.1
1800	350	-0.1
1850	350	-0.1
1900	350	-0.1
1950	350	-0.1
2000	350	-0.1
0	400	-0.1
50	400	-0.1
100	400	-0.1
150	400	-0.1
200	400	-0.1
250	400	-0.1
300	400	-0.1
350	400	-0.1
400	400	-0.1
450	400	-0.1
500	400	-0.1
550	400	-0.1
600	400	-0.1
650	400	-0.1
700	400	-0.1
750	400	-0.1
800	400	-0.1
850	400	-0.1
900	400	-0.1
950	400	-0.1
1000	400	-0.1
1050	400	-0.1
1100	400	-0.1
1150	400	-0.1
1200	400	-0.1
1250	400	-0.1
1300	400	-0.1
1350	400	-0.1
1400	400	-0.1
1450	400	-0.1
1500	400	-0.1
1550	400	-0.1
1600	400	-0.1
1650	400	-0.1
1700	400	-0.1
1750	400	-0.1
1800	400	-0.1
1850	400	-0.1
1900	400	-0.1
1950	400	-0.1
2000	400	-0.1
0	450	-0.1
50	450	-0.1
100	450	-0.1
150	450	-0.1
200	450	-0.1
250	450	-0.1
300	450	-0.1
350	450	-0.1
400	450	-0.1
450	450	-0.1
500	450	-0.1
550	450	-0.1
600	450	-0.1
650	450	-0.1
700	450	-0.1
750	450	-0.1
800	450	-0.1
850	450	-0.1
900	450	-0.1
950	450	-0.1
1000	450	-0.1
1050	450	-0.1
1100	450	-0.1
1150	450	-0.1
1200	450	-0.1
1250	450	-0.1
1300	450	-0.1
1350	450	-0.1
1400	450	-0.1
1450	450	-0.1
1500	450	-0.1
1550	450	-0.1
1600	450	-0.1
1650	450	-0.1
1700	450	-0.1
1750	450	-0.1
1800	450	-0.1
1850	450	-0.1
1900	450	-0.1
1950	450	-0.1
2000	450	-0.1
0	500	-0.1
50	500	-0.1
100	500	-0.1
150	500	-0.1
200	500	-0.1
250	500	-0.1
300	500	-0.1
350	500	-0.1
400	500	-0.1
450	500	-0.1
500	500	-0.1
550	500	-0.1
600	500	-0.1
650	500	-0.1
700	500	-0.1
750	500	-0.1
800	500	-0.1
850	500	-0.1
900	500	-0.1
950	500	-0.1
1000	500	-0.1
1050	500	-0.1
1100	500	-0.1
1150	500	-0.1
1200	500	-0.1
1250	500	-0.1
1300	500	-0.1
1350	500	-0.1
1400	500	-0.1
1450	500	-0.1
1500	500	-0.1
1550	500	-0.1
1600	500	-0.1
1650	500	-0.1
1700	500	-0.1
1750	500	-0.1
1800	500	-0.1
1850	500	-0.1
1900	500	-0.1
1950	500	-0.1
2000	500	-0.1
0	550	-0.1
50	550	-0.1
100	550	-0.1
150	550	-0.1
200	550	-0.1
250	550	-0.1
300	550	-0.1
350	550	-0.1
400	550	-0.1
450	550	-0.1
500	550	-0.1
550	550	-0.1
600	550	-0.1
650	550	-0.1
700	550	-0.1
750	550	-0.1
800	550	-0.1
850	550	-0.1
900	550	-0.1
950	550	-0.1
1000	550	-0.1
1050	550	-0.1
1100	550	-0.1
1150	550	-0.1
1200	550	-0.1
1250	550	-0.1
1300	550	-0.1
1350	550	-0.1
1400	550	-0.1
1450	550	-0.1
1500	550	-0.1
1550	550	-0.1
1600	550	-0.1
1650	550	-0.1
1700	550	-0.1
1750	550	-0.1
1800	550	-0.1
1850	550	-0.1
1900	550	-0.1
1950	550	-0.1
2000	550	-0.1
0	600	-0.1
50	600	-0.1
100	600	-0.1
150	600	-0.1
200	600	-0.1
250	600	-0.1
300	600	-0.1
350	600	-0.1
400	600	-0.1
450	600	-0.1
500	600	-0.1
550	600	-0.1
600	600	-0.1
650	600	-0.1
700	600	-0.1
750	600	-0.1
800	600	-0.1
850	600	-0.1
900	600	-0.1
950	600	-0.1
1000	600	-0.1
1050	600	-0.1
1100	600	-0.1
1150	600	-0.1
1200	600	-0.1
1250	600	-0.1
1300	600	-0.1
1350	600	-0.1
1400	600	-0.1
1450	600	-0.1
1500	600	-0.1
1550	600	-0.1
1600	600	-0.1
1650	600	-0.1
1700	600	-0.1
1750	600	-0.1
1800	600	-0.1
1850	600	-0.1
1900	600	-0.1
1950	600	-0.1
2000	600	-0.1
0	650	-0.1
50	650	-0.1
100	650	-0.1
150	650	-0.1
200	650	-0.1
250	650	-0.1
300	650	-0.1
350	650	-0.1
400	650	-0.1
450	650	-0.1
500	650	-0.1
550	650	-0.1
600	650	-0.1
650	650	-0.1
700	650	-0.1
750	650	-0.1
800	650	-0.1
850	650	-0.1
900	650	-0.1
950	650	-0.1
1000	650	-0.1
1050	650	-0.1
1100	650	-0.1
1150	650	-0.1
1200	650	-0.1
1250	650	-0.1
1300	650	-0.1
1350	650	-0.1
1400	650	-0.1
1450	650	-0.1
1500	650	-0.1
1550	650	-0.1
1600	650	-0.1
1650	650	-0.1
1700	650	-0.1
1750	650	-0.1
1800	650	-0.1
1850	650	-0.1
1900	650	-0.1
1950	650	-0.1
2000	650	-0.1
0	700	-0.1
50	700	-0.1
100	700	-0.1
150	700	-0.1
200	700	-0.1
250	700	-0.1
300	700	-0.1
350	700	-0.1
400	700	-0.1
450	700	-0.1
500	700	-0.1
550	700	-0.1
600	700	-0.1
650	700	-0.1
700	700	-0.1
750	700	-0.1
800	700	-0.1
850	700	-0.1
900	700	-0.1
950	700	-0.1
1000	700	-0.1
1050	700	-0.1
1100	700	-0.1
1150	700	-0.1
1200	700	-0.1
1250	700	-0.1
1300	700	-0.1
1350	700	-0.1
1400	700	-0.1
1450	700	-0.1
1500	700	-0.1
1550	700	-0.1
1600	700	-0.1
1650	700	-0.1
1700	700	-0.1
1750	700	-0.1
1800	700	-0.1
1850	700	-0.1
1900	700	-0.1
1950	700	-0.1
2000	700	-0.1
0	750	-0.1
50	750	-0.1
100	750	-0.1
150	750	-0.1
200	750	-0.1
250	750	-0.1
300	750	-0.1
350	750	-0.1
400	750	-0.1
450	750	-0.1
500	750	-0.1
550	750	-0.1
600	750	-0.1
650	750	-0.1
700	750	-0.1
750	750	-0.1
800	750	-0.1
850	750	-0.1
900	750	-0.1
950	750	-0.1
1000	750	-0.1
1050	750	-0.1
1100	750	-0.1
1150	750	-0.1
1200	750	-0.1
1250	750	-0.1
1300	750	-0.1
1350	750	-0.1
1400	750	-0.1
1450	750	-0.1
1500	750	-0.1
1550	750	-0.1
1600	750	-0.1
1650	750	-0.1
1700	750	-0.1
1750	750	-0.1
1800	750	-0.1
1850	750	-0.1
1900	750	-0.1
1950	750	-0.1
2000	750	-0.1
0	800	-0.1
50	800	-0.1
100	800	-0.1
150	800	-0.1
200	800	-0.1
250	800	-0.1
300	800	-0.1
350	800	-0.1
400	800	-0.1
450	800	-0.1
500	800	-0.1
550	800	-0.1
600	800	-0.1
650	800	-0.1
700	800	-0.1
750	800	-0.1
800	800	-0.1
850	800	-0.1
900	800	-0.1
950	800	-0.1
1000	800	-0.1
1050	800	-0.1
1100	800	-0.1
1150	800	-0.1
1200	800	-0.1
1250	800	-0.1
1300	800	-0.1
1350	800	-0.1
1400	800	-0.1
1450	800	-0.1
1500	800	-0.1
1550	800	-0.1
1600	800	-0.1
1650	800	-0.1
1700	800	-0.1
1750	800	-0.1
1800	800	-0.1
1850	800	-0.1
1900	800	-0.1
1950	800	-0.1
2000	800	-0.1
0	850	-0.1
50	850	-0.1
100	850	-0.1
150	850	-0.1
200	850	-0.1
250	850	-0.1
300	850	-0.1
350	850	-0.1
400	850	-0.1
450	850	-0.1
500	850	-0.1
550	850	-0.1
600	850	-0.1
650	850	-0.1
700	850	-0.1
750	850	-0.1
800	850	-0.1
850	850	-0.1
900	850	-0.1
950	850	-0.1
1000	850	-0.1
1050	850	-0.1
1100	850	-0.1
1150	850	-0.1
1200	850	-0.1
1250	850	-0.1
1300	850	-0.1
1350	850	-0.1
1400	850	-0.1
1450	850	-0.1
1500	850	-0.1
1550	850	-0.1
1600	850	-0.1
1650	850	-0.1
1700	850	-0.1
1750	850	-0.1
1800	850	-0.1
1850	850	-0.1
1900	850	-0.1
1950	850	-0.1
2000	850	-0.1
0	900	-0.1
50	900	-0.1
100	900	-0.1
150	900	-0.1
200	900	-0.1
250	900	-0.1
300	900	-0.1
350	900	-0.1
[...]
CELL_DATA	1681
SCALARS g_z double 1
LOOKUP_TABLE table0
0.029759
0.0314044
0.0329662
0.0344092
0.0357242
0.036829
0.0376322
0.0380921
0.0380751
0.0375932
0.0366651
0.0351731
0.0330695
0.0303768
0.027147
0.0234281
0.0193494
0.0148839
0.0100215
0.00494141
-0.000204291
-0.0053352
-0.0103741
-0.0151835
-0.0196674
-0.0237197
-0.0272661
-0.0303103
-0.0329742
-0.0350949
-0.0365297
-0.037453
-0.0379675
-0.038002
-0.0375046
-0.0366347
-0.0356539
-0.0345357
-0.0332208
-0.0318628
-0.0302408
0.0338924
0.0359426
0.0379185
0.0397779
0.04153
0.0430464
0.0441853
0.0449081
0.045
0.0445277
0.043566
0.0419183
0.0395071
0.0363686
0.0325782
0.0281911
0.0234155
0.0181544
0.012333
0.00622811
5.51989e-05
-0.00610712
-0.012185
-0.0179866
-0.023396
-0.028266
-0.0324931
-0.0361039
-0.0393447
-0.041909
-0.0435185
-0.0444952
-0.0450229
-0.0449603
-0.0441903
-0.0429675
-0.0417197
-0.0403175
-0.0385822
-0.036769
-0.0344124
0.0385784
0.0411304
0.0436257
0.0460086
0.0482741
0.0502762
0.0518522
0.0529378
0.0532882
0.0529496
0.0519818
0.050169
0.0474216
0.0437704
0.039296
0.03407
0.0283213
0.021958
0.0149179
0.00751807
1.7394e-05
-0.00747807
-0.014867
-0.0219144
-0.0284607
-0.0343249
-0.0393816
-0.0436495
-0.047377
-0.0502458
-0.0519785
-0.0529306
-0.0533096
-0.0529642
-0.0517741
-0.0500362
-0.0482385
-0.0462816
-0.044002
-0.0416743
-0.0388319
0.0438686
0.0470347
0.0501799
0.0532227
0.0561274
0.0587432
0.0608992
0.0624937
0.0632461
0.0631531
0.0622341
0.0602679
0.0571646
0.0529286
0.0476258
0.0413585
0.0343903
0.0266383
0.0180589
0.00903147
-0.000116031
-0.00926528
-0.0183016
-0.0269168
-0.0348789
-0.041972
-0.0480515
-0.0531088
-0.0573804
-0.0605466
-0.0623497
-0.0631939
-0.0633331
-0.0625836
-0.060802
-0.0583585
-0.0558268
-0.053148
-0.0501826
-0.0472421
-0.0438764
0.0497793
0.053657
0.0576153
0.0614938
0.0650829
0.0683674
0.0713081
0.07363
0.0751101
0.0755467
0.0747773
0.0727017
0.0693779
0.0646188
0.0583146
0.0507567
0.0423657
0.0329682
0.0224431
0.01137
0.000401946
-0.0105766
-0.0216838
-0.0322811
-0.041925
-0.0504584
-0.0578154
-0.0638522
-0.0688106
-0.0723316
-0.0741517
-0.0748014
-0.0749201
-0.0739458
-0.0713689
-0.0679869
-0.0646405
-0.0611804
-0.0573529
-0.0536508
-0.0496847
0.0564206
0.0611834
0.0661696
0.07114
0.075704
0.0799689
0.0840081
0.087352
0.0898151
0.0909829
0.0904978
0.0883666
0.0847827
0.0793585
0.0718083
0.0626198
0.052383
0.0408462
0.0278262
0.0141227
0.000733471
-0.0126765
-0.0264438
-0.0395807
-0.0514124
-0.0618227
-0.0708084
-0.0780746
-0.0838577
-0.0877582
-0.0895145
-0.0897974
-0.0896503
-0.0881532
-0.0844541
-0.0798012
-0.0753231
-0.0707925
-0.0658502
-0.0611757
-0.0564392
0.0639022
0.0698026
0.0760885
0.0824953
0.0885802
0.094407
0.0999841
0.104733
0.108368
0.110388
0.110366
0.108259
0.104215
0.0977878
0.0886726
0.0774171
0.0646876
0.0502736
0.0340524
0.0169539
0.00011053
-0.0167639
-0.0339575
-0.0503461
-0.0651136
-0.078062
-0.0891263
-0.0979298
-0.104657
-0.108911
-0.110481
-0.110132
-0.109009
-0.106215
-0.100938
-0.0945799
-0.0884221
-0.0823112
-0.0759307
-0.0700204
-0.0642696
0.0722417
0.0795245
0.0874312
0.0956797
0.10377
0.111699
0.119365
0.126011
0.131161
0.134297
0.134991
0.13307
0.128582
0.120985
0.109947
0.0961218
0.0803129
0.0623212
0.0420597
0.0206729
-0.000494094
-0.0217002
-0.0432094
-0.0636885
-0.0821014
-0.0981898
-0.111849
-0.122548
-0.130358
-0.134918
-0.136127
-0.134858
-0.132397
-0.127868
-0.120513
-0.111964
-0.10373
-0.095693
-0.0875332
-0.080099
-0.0731331
0.0814708
0.0903847
0.100289
0.11085
0.121397
0.13196
0.14241
0.151582
0.158024
0.161958
0.163725
0.162267
0.157669
0.14899
0.135608
0.118611
0.0996151
0.0777952
0.0524725
0.0257269
-0.000131114
-0.0260309
-0.0529119
-0.0784885
-0.10082
-0.120185
-0.137042
-0.150054
-0.158761
-0.163204
-0.163794
-0.161264
-0.157691
-0.151569
-0.141549
-0.130244
-0.120132
-0.110437
-0.100131
-0.0908511
-0.0827346
0.0917008
0.102583
0.114928
0.128369
0.142066
0.156082
0.170233
0.182905
0.191597
0.197182
0.200675
0.200065
0.195427
0.185402
0.169084
0.148022
0.1247
0.097738
0.0659349
0.0323619
0.00033075
-0.0317348
-0.0654288
-0.0974832
-0.125006
-0.148748
-0.169669
-0.185578
-0.19546
-0.199751
-0.199387
-0.195006
-0.189541
-0.180947
-0.167371
-0.152459
-0.139692
-0.127661
-0.114645
-0.103077
-0.0934727
0.102961
0.116209
0.131487
0.148454
0.16623
0.184799
0.203816
0.221356
0.234519
0.243858
0.250085
0.250848
0.24599
0.234003
0.213967
0.187625
0.157759
0.123228
0.0830954
0.0408128
8.28273e-06
-0.0408095
-0.0831607
-0.123491
-0.158549
-0.188809
-0.214969
-0.234549
-0.246353
-0.250829
-0.24906
-0.241908
-0.232655
-0.21959
-0.201198
-0.181506
-0.164301
-0.148288
-0.131803
-0.117401
-0.105616
0.115015
0.130916
0.149611
0.17077
0.193458
0.217641
0.242867
0.26692
0.286499
0.301412
0.311646
0.3145
0.309598
0.295288
0.270656
0.237631
0.199317
0.155079
0.104506
0.051429
-0.00024566
-0.051895
-0.10494
-0.155625
-0.200412
-0.23915
-0.271934
-0.296064
-0.310232
-0.314825
-0.310996
-0.299858
-0.285062
-0.265687
-0.240983
-0.215196
-0.192244
-0.171109
-0.150363
-0.132633
-0.118429
0.127073
0.145326
0.167882
0.193887
0.221896
0.252364
0.285242
0.317676
0.347192
0.371087
0.386849
0.392677
0.388144
0.371312
0.341151
0.299899
0.250579
0.193831
0.130524
0.0644487
-4.1472e-05
-0.0644426
-0.130177
-0.193345
-0.251495
-0.302087
-0.342866
-0.372307
-0.389491
-0.394291
-0.38755
-0.370896
-0.346811
-0.31732
-0.284909
-0.251916
-0.221382
-0.193487
-0.167685
-0.146237
-0.130477
0.139647
0.160589
0.187501
0.219051
0.253333
0.291309
0.333329
0.375858
0.417134
0.451748
0.474465
0.484205
0.48037
0.460699
0.424054
0.373054
0.310784
0.239347
0.16105
0.0797144
0.000148507
-0.0792657
-0.159985
-0.237831
-0.311335
-0.375472
-0.425525
-0.461089
-0.48155
-0.486268
-0.475741
-0.452278
-0.417356
-0.376079
-0.334305
-0.292581
-0.253177
-0.217517
-0.185969
-0.160359
-0.142771
0.153078
0.177611
0.209342
0.247108
0.289077
0.33623
0.388787
0.442836
0.495908
0.541256
0.572232
0.586851
0.583952
0.56102
0.516972
0.454811
0.378351
0.290803
0.195513
0.0968441
-6.48488e-05
-0.0968182
-0.196048
-0.291782
-0.381976
-0.460678
-0.521882
-0.565156
-0.588905
-0.593041
-0.576883
-0.544627
-0.498799
-0.445497
-0.391777
-0.338704
-0.289261
-0.245013
-0.207185
-0.176968
-0.156196
0.166044
0.194222
0.230954
0.275374
0.325887
0.383281
0.44744
0.514222
0.580476
0.638053
0.678775
0.699363
0.69779
0.671366
0.619143
0.544537
0.452215
0.346829
0.233024
0.115573
-0.000317423
-0.115971
-0.234903
-0.349309
-0.456523
-0.549929
-0.622462
-0.67354
-0.700442
-0.703746
-0.681671
-0.640313
-0.583251
-0.51744
-0.451016
-0.385807
-0.325764
-0.272536
-0.228135
-0.19312
-0.169019
0.177005
0.20785
0.249369
0.300527
0.361522
0.431189
0.507364
0.587444
0.668414
0.740007
0.79278
0.821307
0.821103
0.790814
0.729853
0.641897
0.531814
0.406804
0.274034
0.137477
-8.34176e-05
-0.137207
-0.275575
-0.407929
-0.530838
-0.637617
-0.720834
-0.779229
-0.808536
-0.810518
-0.783577
-0.734301
-0.665873
-0.587297
-0.508229
-0.430944
-0.360747
-0.29898
-0.24797
-0.208136
-0.180675
0.186186
0.219261
0.265014
0.322231
0.392911
0.473964
0.561249
0.65384
0.749011
0.834222
0.898606
0.934751
0.935849
0.901934
0.832775
0.732249
0.60535
0.4619
0.311664
0.157701
0.000273146
-0.156477
-0.31243
-0.46091
-0.597758
-0.716335
-0.808937
-0.873753
-0.905086
-0.905875
-0.874692
-0.818459
-0.739781
-0.64962
-0.559057
-0.470765
-0.391373
-0.321911
-0.265021
-0.220947
-0.190538
0.193894
0.229324
0.278436
0.340278
0.417099
0.505693
0.601776
0.704624
0.812386
0.909592
0.982101
1.02298
1.02505
0.988248
0.912479
0.801825
0.661377
0.503116
0.33894
0.171328
0.000316953
-0.169825
-0.339847
-0.501427
-0.649528
-0.777567
-0.876889
-0.946114
-0.979502
-0.979892
-0.945457
-0.883816
-0.797479
-0.698556
-0.598803
-0.501646
-0.414514
-0.338598
-0.277512
-0.230542
-0.198038
0.198864
0.235862
0.28711
0.351796
0.432274
0.525451
0.627149
0.736759
0.853389
0.959032
1.03672
1.08046
1.08303
1.04426
0.964116
0.846813
0.697326
0.529239
0.356088
0.179784
0.000309683
-0.178172
-0.357522
-0.527907
-0.683566
-0.818004
-0.921681
-0.993769
-1.02861
-1.02888
-0.992288
-0.927097
-0.835648
-0.730862
-0.624834
-0.521617
-0.429317
-0.349146
-0.285554
-0.23686
-0.202982
0.200643
0.238221
0.290172
0.355717
0.436855
0.531034
0.634624
0.746699
0.866609
0.975422
1.05532
1.1004
1.10326
1.06386
0.982125
0.862423
0.709872
0.538479
0.362181
0.18284
0.000151117
-0.18141
-0.363054
-0.535561
-0.693713
-0.830361
-0.935761
-1.00903
-1.04432
-1.04445
-1.00709
-0.940687
-0.847992
-0.741655
-0.633271
-0.527809
-0.434436
-0.353572
-0.289041
-0.239569
-0.205022
0.199043
0.236106
0.287275
0.351692
0.430927
0.52292
0.62456
0.734581
0.852715
0.959978
1.03865
1.08309
1.08587
1.04703
0.966507
0.848696
0.698611
0.530019
0.356641
0.18019
0.000116425
-0.178783
-0.357054
-0.526408
-0.68244
-0.81749
-0.92178
-0.994388
-1.02928
-1.02948
-0.992625
-0.92722
-0.836279
-0.731868
-0.624769
-0.520572
-0.429217
-0.3502
-0.286628
-0.237769
-0.203616
0.194181
0.229667
0.278653
0.340106
0.415462
0.502696
0.598761
0.702326
0.812426
0.912162
0.986284
1.02828
1.03067
0.993709
0.917101
0.805382
0.663648
0.50428
0.339689
0.171867
0.000344826
-0.170054
-0.339032
-0.499694
-0.648421
-0.7774
-0.877304
-0.946961
-0.980504
-0.980883
-0.946081
-0.884123
-0.798255
-0.699585
-0.598329
-0.499769
-0.41303
-0.337888
-0.277157
-0.230383
-0.198256
0.186577
0.219693
0.265314
0.322151
0.391411
0.47117
0.558514
0.651968
0.749918
0.838121
0.904395
0.94181
0.943185
0.908956
0.838607
0.736667
0.608081
0.463182
0.312477
0.15832
0.000555226
-0.156258
-0.311299
-0.459061
-0.59674
-0.716468
-0.809504
-0.874558
-0.906079
-0.906909
-0.875349
-0.81878
-0.740513
-0.650487
-0.558144
-0.468182
-0.388635
-0.319502
-0.263258
-0.219714
-0.190294
0.177375
0.208131
0.249535
0.30042
0.360552
0.429478
0.505797
0.586661
0.66967
0.743466
0.797671
0.827003
0.826408
0.795192
0.733133
0.644066
0.533244
0.407731
0.274657
0.137981
0.000242
-0.136771
-0.27405
-0.405533
-0.529203
-0.6371
-0.720774
-0.779402
-0.808584
-0.810348
-0.783572
-0.73452
-0.666494
-0.587997
-0.507315
-0.42862
-0.358879
-0.298045
-0.247767
-0.208404
-0.181257
0.166391
0.194353
0.230998
0.275269
0.32549
0.382693
0.447044
0.51444
0.581831
0.640646
0.682205
0.703053
0.700406
0.672492
0.619377
0.544114
0.452166
0.347363
0.233484
0.115992
8.92309e-06
-0.115441
-0.233112
-0.346443
-0.454253
-0.548676
-0.621774
-0.673217
-0.699781
-0.702644
-0.681215
-0.640576
-0.583933
-0.51823
-0.450473
-0.384189
-0.325178
-0.273391
-0.229699
-0.194992
-0.170428
0.153503
0.177815
0.209484
0.247165
0.288953
0.336003
0.388741
0.443272
0.497217
0.543504
0.575075
0.589772
0.58567
0.561208
0.516372
0.45377
0.377989
0.291302
0.196078
0.0973744
-3.27742e-05
-0.0969916
-0.194828
-0.289229
-0.379472
-0.458758
-0.521287
-0.565828
-0.589767
-0.593818
-0.577654
-0.545428
-0.500304
-0.447534
-0.392933
-0.339122
-0.289898
-0.246186
-0.208899
-0.178895
-0.157559
0.140067
0.16076
0.187609
0.219088
0.253197
0.291059
0.333217
0.376131
0.418123
0.453503
0.476681
0.486447
0.481474
0.460407
0.42312
0.371831
0.310376
0.239906
0.16174
0.0803487
-0.000138494
-0.0802147
-0.15952
-0.235867
-0.308862
-0.373075
-0.4251
-0.462773
-0.484027
-0.489109
-0.477935
-0.453758
-0.419711
-0.379278
-0.337009
-0.294796
-0.254655
-0.218491
-0.187266
-0.161826
-0.143744
0.127239
0.145058
0.167516
0.193426
0.221125
0.251332
0.284295
0.317031
0.347099
0.371582
0.387706
0.393594
0.388468
0.37085
0.340252
0.298828
0.250226
0.194316
0.131158
0.0650421
-0.000147052
-0.0650819
-0.130015
-0.192209
-0.249493
-0.299658
-0.341634
-0.372593
-0.391061
-0.396787
-0.389783
-0.372598
-0.348568
-0.319128
-0.286301
-0.252919
-0.221667
-0.193228
-0.167603
-0.146342
-0.130553
0.114847
0.13012
0.148677
0.169723
0.191973
0.215765
0.241045
0.265342
0.285332
0.300673
0.311185
0.314139
0.309192
0.294697
0.269816
0.236712
0.198986
0.155427
0.105005
0.0519103
-0.000194302
-0.0522043
-0.105066
-0.155344
-0.198981
-0.236821
-0.269935
-0.294859
-0.310701
-0.316747
-0.313117
-0.301722
-0.286161
-0.265992
-0.240892
-0.214794
-0.191233
-0.16962
-0.148946
-0.131423
-0.117649
0.10258
0.115154
0.130287
0.147161
0.164526
0.182733
0.201824
0.21959
0.233096
0.242768
0.249197
0.250047
0.24523
0.233188
0.213001
0.186639
0.157375
0.123514
0.0835306
0.0412304
-1.30138e-06
-0.0412211
-0.0835132
-0.123543
-0.157439
-0.186705
-0.21305
-0.233325
-0.246837
-0.252863
-0.25139
-0.244012
-0.233898
-0.219923
-0.201088
-0.181045
-0.163158
-0.146571
-0.130069
-0.115846
-0.104547
0.0911719
0.101399
0.113631
0.127041
0.14042
0.154169
0.168459
0.181368
0.190357
0.196198
0.199821
0.199253
0.194644
0.184578
0.168128
0.147051
0.124305
0.097976
0.0662987
0.0327001
0.000248683
-0.0322269
-0.065908
-0.0977298
-0.124165
-0.146956
-0.168039
-0.184579
-0.196076
-0.201853
-0.201789
-0.197216
-0.190923
-0.181439
-0.167426
-0.152172
-0.138758
-0.126168
-0.113093
-0.101635
-0.0924402
0.081081
0.0896011
0.0994648
0.110086
0.120492
0.130969
0.141645
0.151072
0.157665
0.161678
0.163501
0.162026
0.157387
0.148609
0.135068
0.118008
0.099408
0.0780375
0.0527884
0.0260156
-9.88378e-05
-0.0262478
-0.0531283
-0.0785588
-0.100192
-0.118973
-0.136015
-0.149541
-0.15927
-0.164627
-0.165449
-0.162776
-0.158575
-0.151761
-0.14137
-0.129823
-0.119604
-0.10987
-0.0995331
-0.0902673
-0.0821929
0.0720558
0.079216
0.0871566
0.0955468
0.103657
0.111657
0.11962
0.126529
0.131684
0.134727
0.135411
0.133417
0.128813
0.121051
0.109815
0.0958707
0.0802709
0.0625403
0.0422983
0.0208825
-0.000373675
-0.0216607
-0.0431717
-0.0635821
-0.0816806
-0.0975502
-0.11141
-0.122495
-0.130715
-0.135598
-0.136962
-0.135601
-0.132728
-0.127723
-0.120079
-0.111408
-0.10363
-0.0960949
-0.0879512
-0.0804413
-0.0731472
0.0637591
0.0695879
0.0759447
0.0825294
0.0886765
0.0946114
0.100498
0.105498
0.1091
0.110977
0.110898
0.108678
0.104485
0.0978702
0.0885406
0.0771408
0.0645744
0.0503734
0.0341441
0.0170111
9.68196e-05
-0.0168397
-0.0340412
-0.0503977
-0.0649223
-0.077706
-0.0889537
-0.0980552
-0.105041
-0.109487
-0.111176
-0.110774
-0.109325
-0.106141
-0.100641
-0.0942238
-0.0886139
-0.08308
-0.0767209
-0.0706861
-0.0645164
0.056369
0.0610775
0.0661389
0.0712689
0.0758495
0.0801636
0.0844585
0.0880182
0.0904489
0.0914794
0.0909191
0.0886549
0.08492
0.0793208
0.0715725
0.062247
0.0521579
0.0408138
0.0277816
0.0140491
0.000599207
-0.0128651
-0.0266433
-0.0397674
-0.0513939
-0.0616617
-0.0708043
-0.0782985
-0.0842434
-0.0882589
-0.0901137
-0.0903783
-0.0899787
-0.0881688
-0.0842936
-0.0795902
-0.0756206
-0.0716158
-0.0666679
-0.0618625
-0.0567264
0.0498383
0.053625
0.0576395
0.0616123
0.0650333
0.0681644
0.0712516
0.0737539
0.0755136
0.0761432
0.0753212
0.0731149
0.0696954
0.0648354
0.058378
0.0507033
0.042314
0.0329569
0.0224224
0.0113411
0.000357117
-0.0106369
-0.0217517
-0.0323615
-0.0419861
-0.0505492
-0.0580481
-0.064241
-0.0691792
-0.0726487
-0.0745368
-0.0752035
-0.0752387
-0.0741243
-0.0714152
-0.0679403
-0.0647065
-0.0613695
-0.0574782
-0.0536844
-0.0496301
0.044077
0.0471152
0.0502905
0.0533481
0.0558811
0.0581201
0.0602952
0.0620214
0.0633585
0.0637877
0.062843
0.0607566
0.0576227
0.0533703
0.0479701
0.041618
0.0345178
0.0266658
0.0180903
0.0090835
-2.96294e-05
-0.00915108
-0.0181872
-0.0268353
-0.0349587
-0.0422506
-0.0484581
-0.0536052
-0.0576817
-0.0606337
-0.0624718
-0.0633597
-0.0635738
-0.0628486
-0.0609732
-0.0583921
-0.0555766
-0.0526212
-0.0495415
-0.0465613
-0.0434341
0.0389842
0.0414211
0.0439291
0.0462682
0.0480631
0.0495722
0.0510615
0.052205
0.053119
0.0533043
0.0523039
0.0503741
0.0476213
0.0439958
0.0394715
0.034203
0.028346
0.0219008
0.0148909
0.00753742
9.29839e-05
-0.0073586
-0.0147386
-0.0218191
-0.02854
-0.0346072
-0.0397668
-0.0440778
-0.0475512
-0.0501558
-0.0519019
-0.0529072
-0.0534003
-0.0531258
-0.05187
-0.0499899
-0.0478577
-0.0455713
-0.0431688
-0.0408317
-0.0382944
0.0344699
0.0364277
0.0384131
0.0402075
0.0414658
0.0424533
0.0434457
0.0441529
0.044724
0.044707
0.0436829
0.0419124
0.0395018
0.0364057
0.0325936
0.028197
0.0233474
0.0180342
0.0122651
0.00622219
0.000116029
-0.00599484
-0.0120565
-0.0178811
-0.0234476
-0.0284968
-0.0328008
-0.0364316
-0.0394088
-0.0417051
-0.0433216
-0.0443507
-0.0449997
-0.0450232
-0.0442084
-0.0428649
-0.041305
-0.0395937
-0.0377508
-0.0359386
-0.0338862
0.0305147
0.0321448
0.0337294
0.0351305
0.0361511
0.0369199
0.0375736
0.0379511
0.0381073
0.0377832
0.0367428
0.0351151
0.03296
0.0302616
0.0270153
0.0233046
0.0192145
0.0147569
0.00995788
0.00494251
-0.000142996
-0.00522892
-0.0102481
-0.015066
-0.0196361
-0.0237927
-0.0273936
-0.0304617
-0.0330008
-0.0349957
-0.0364505
-0.0374197
-0.0380115
-0.0380954
-0.0375667
-0.0366117
-0.0354371
-0.034126
-0.0327311
-0.0313639
-0.0299022

POINT_DATA	1681
SCALARS g_z double 1
LOOKUP_TABLE table0
0.029759
0.0314044
0.0329662
0.0344092
0.0357242
0.036829
0.0376322
0.0380921
0.0380751
0.0375932
0.0366651
0.0351731
0.0330695
0.0303768
0.027147
0.0234281
0.0193494
0.0148839
0.0100215
0.00494141
-0.000204291
-0.0053352
-0.0103741
-0.0151835
-0.0196674
-0.0237197
-0.0272661
-0.0303103
-0.0329742
-0.0350949
-0.0365297
-0.037453
-0.0379675
-0.038002
-0.0375046
-0.0366347
-0.0356539
-0.0345357
-0.0332208
-0.0318628
-0.0302408
0.0338924
0.0359426
0.0379185
0.0397779
0.04153
0.0430464
0.0441853
0.0449081
0.045
0.0445277
0.043566
0.0419183
0.0395071
0.0363686
0.0325782
0.0281911
0.0234155
0.0181544
0.012333
0.00622811
5.51989e-05
-0.00610712
-0.012185
-0.0179866
-0.023396
-0.028266
-0.0324931
-0.0361039
-0.0393447
-0.041909
-0.0435185
-0.0444952
-0.0450229
-0.0449603
-0.0441903
-0.0429675
-0.0417197
-0.0403175
-0.0385822
-0.036769
-0.0344124
0.0385784
0.0411304
0.0436257
0.0460086
0.0482741
0.0502762
0.0518522
0.0529378
0.0532882
0.0529496
0.0519818
0.050169
0.0474216
0.0437704
0.039296
0.03407
0.0283213
0.021958
0.0149179
0.00751807
1.7394e-05
-0.00747807
-0.014867
-0.0219144
-0.0284607
-0.0343249
-0.0393816
-0.0436495
-0.047377
-0.0502458
-0.0519785
-0.0529306
-0.0533096
-0.0529642
-0.0517741
-0.0500362
-0.0482385
-0.0462816
-0.044002
-0.0416743
-0.0388319
0.0438686
0.0470347
0.0501799
0.0532227
0.0561274
0.0587432
0.0608992
0.0624937
0.0632461
0.0631531
0.0622341
0.0602679
0.0571646
0.0529286
0.0476258
0.0413585
0.0343903
0.0266383
0.0180589
0.00903147
-0.000116031
-0.00926528
-0.0183016
-0.0269168
-0.0348789
-0.041972
-0.0480515
-0.0531088
-0.0573804
-0.0605466
-0.0623497
-0.0631939
-0.0633331
-0.0625836
-0.060802
-0.0583585
-0.0558268
-0.053148
-0.0501826
-0.0472421
-0.0438764
0.0497793
0.053657
0.0576153
0.0614938
0.0650829
0.0683674
0.0713081
0.07363
0.0751101
0.0755467
0.0747773
0.0727017
0.0693779
0.0646188
0.0583146
0.0507567
0.0423657
0.0329682
0.0224431
0.01137
0.000401946
-0.0105766
-0.0216838
-0.0322811
-0.041925
-0.0504584
-0.0578154
-0.0638522
-0.0688106
-0.0723316
-0.0741517
-0.0748014
-0.0749201
-0.0739458
-0.0713689
-0.0679869
-0.0646405
-0.0611804
-0.0573529
-0.0536508
-0.0496847
0.0564206
0.0611834
0.0661696
0.07114
0.075704
0.0799689
0.0840081
0.087352
0.0898151
0.0909829
0.0904978
0.0883666
0.0847827
0.0793585
0.0718083
0.0626198
0.052383
0.0408462
0.0278262
0.0141227
0.000733471
-0.0126765
-0.0264438
-0.0395807
-0.0514124
-0.0618227
-0.0708084
-0.0780746
-0.0838577
-0.0877582
-0.0895145
-0.0897974
-0.0896503
-0.0881532
-0.0844541
-0.0798012
-0.0753231
-0.0707925
-0.0658502
-0.0611757
-0.0564392
0.0639022
0.0698026
0.0760885
0.0824953
0.0885802
0.094407
0.0999841
0.104733
0.108368
0.110388
0.110366
0.108259
0.104215
0.0977878
0.0886726
0.0774171
0.0646876
0.0502736
0.0340524
0.0169539
0.00011053
-0.0167639
-0.0339575
-0.0503461
-0.0651136
-0.078062
-0.0891263
-0.0979298
-0.104657
-0.108911
-0.110481
-0.110132
-0.109009
-0.106215
-0.100938
-0.0945799
-0.0884221
-0.0823112
-0.0759307
-0.0700204
-0.0642696
0.0722417
0.0795245
0.0874312
0.0956797
0.10377
0.111699
0.119365
0.126011
0.131161
0.134297
0.134991
0.13307
0.128582
0.120985
0.109947
0.0961218
0.0803129
0.0623212
0.0420597
0.0206729
-0.000494094
-0.0217002
-0.0432094
-0.0636885
-0.0821014
-0.0981898
-0.111849
-0.122548
-0.130358
-0.134918
-0.136127
-0.134858
-0.132397
-0.127868
-0.120513
-0.111964
-0.10373
-0.095693
-0.0875332