# vtk DataFile Version 3.0
Gravity effects
ASCII
DATASET UNSTRUCTURED_GRID

POINTS	1681	double
0	0	-0.1
50	0	-0.1
100	0	-0.1
150	0	-0.1
200	0	-0.1
250	0	-0.1
300	0	-0.1
350	0	-0.1
400	0	-0.1
450	0	-0.1
500	0	-0.1
550	0	-0.1
600	0	-0.1
650	0	-0.1
700	0	-0.1
750	0	-0.1
800	0	-0.1
850	0	-0.1
900	0	-0.1
950	0	-0.1
1000	0	-0.1
1050	0	-0.1
1100	0	-0.1
1150	0	-0.1
1200	0	-0.1
1250	0	-0.1
1300	0	-0.1
1350	0	-0.1
1400	0	-0.1
1450	0	-0.1
1500	0	-0.1
1550	0	-0.1
1600	0	-0.1
1650	0	-0.1
1700	0	-0.1
1750	0	-0.1
1800	0	-0.1
1850	0	-0.1
1900	0	-0.1
1950	0	-0.1
2000	0	-0.1
0	50	-0.1
50	50	-0.1
100	50	-0.1
150	50	-0.1
200	50	-0.1
250	50	-0.1
300	50	-0.1
350	50	-0.1
400	50	-0.1
450	50	-0.1
500	50	-0.1
550	50	-0.1
600	50	-0.1
650	50	-0.1
700	50	-0.1
750	50	-0.1
800	50	-0.1
850	50	-0.1
900	50	-0.1
950	50	-0.1
1000	50	-0.1
1050	50	-0.1
1100	50	-0.1
1150	50	-0.1
1200	50	-0.1
1250	50	-0.1
1300	50	-0.1
1350	50	-0.1
1400	50	-0.1
1450	50	-0.1
1500	50	-0.1
1550	50	-0.1
1600	50	-0.1
1650	50	-0.1
1700	50	-0.1
1750	50	-0.1
1800	50	-0.1
1850	50	-0.1
1900	50	-0.1
1950	50	-0.1
2000	50	-0.1
0	100	-0.1
50	100	-0.1
100	100	-0.1
150	100	-0.1
200	100	-0.1
250	100	-0.1
300	100	-0.1
350	100	-0.1
400	100	-0.1
450	100	-0.1
500	100	-0.1
550	100	-0.1
600	100	-0.1
650	100	-0.1
700	100	-0.1
750	100	-0.1
800	100	-0.1
850	100	-0.1
900	100	-0.1
950	100	-0.1
1000	100	-0.1
1050	100	-0.1
1100	100	-0.1
1150	100	-0.1
1200	100	-0.1
1250	100	-0.1
1300	100	-0.1
1350	100	-0.1
1400	100	-0.1
1450	100	-0.1
1500	100	-0.1
1550	100	-0.1
1600	100	-0.1
1650	100	-0.1
1700	100	-0.1
1750	100	-0.1
1800	100	-0.1
1850	100	-0.1
1900	100	-0.1
1950	100	-0.1
2000	100	-0.1
0	150	-0.1
50	150	-0.1
100	150	-0.1
150	150	-0.1
200	150	-0.1
250	150	-0.1
300	150	-0.1
350	150	-0.1
400	150	-0.1
450	150	-0.1
500	150	-0.1
550	150	-0.1
600	150	-0.1
650	150	-0.1
700	150	-0.1
750	150	-0.1
800	150	-0.1
850	150	-0.1
900	150	-0.1
950	150	-0.1
1000	150	-0.1
1050	150	-0.1
1100	150	-0.1
1150	150	-0.1
1200	150	-0.1
1250	150	-0.1
1300	150	-0.1
1350	150	-0.1
1400	150	-0.1
1450	150	-0.1
1500	150	-0.1
1550	150	-0.1
1600	150	-0.1
1650	150	-0.1
1700	150	-0.1
1750	150	-0.1
1800	150	-0.1
1850	150	-0.1
1900	150	-0.1
1950	150	-0.1
2000	150	-0.1
0	200	-0.1
50	200	-0.1
100	200	-0.1
150	200	-0.1
200	200	-0.1
250	200	-0.1
300	200	-0.1
350	200	-0.1
400	200	-0.1
450	200	-0.1
500	200	-0.1
550	200	-0.1
600	200	-0.1
650	200	-0.1
700	200	-0.1
750	200	-0.1
800	200	-0.1
850	200	-0.1
900	200	-0.1
950	200	-0.1
1000	200	-0.1
1050	200	-0.1
1100	200	-0.1
1150	200	-0.1
1200	200	-0.1
1250	200	-0.1
1300	200	-0.1
1350	200	-0.1
1400	200	-0.1
1450	200	-0.1
1500	200	-0.1
1550	200	-0.1
1600	200	-0.1
1650	200	-0.1
1700	200	-0.1
1750	200	-0.1
1800	200	-0.1
1850	200	-0.1
1900	200	-0.1
1950	200	-0.1
2000	200	-0.1
0	250	-0.1
50	250	-0.1
100	250	-0.1
150	250	-0.1
200	250	-0.1
250	250	-0.1
300	250	-0.1
350	250	-0.1
400	250	-0.1
450	250	-0.1
500	250	-0.1
550	250	-0.1
600	250	-0.1
650	250	-0.1
700	250	-0.1
750	250	-0.1
800	250	-0.1
850	250	-0.1
900	250	-0.1
950	250	-0.1
1000	250	-0.1
1050	250	-0.1
1100	250	-0.1
1150	250	-0.1
1200	250	-0.1
1250	250	-0.1
1300	250	-0.1
1350	250	-0.1
1400	250	-0.1
1450	250	-0.1
1500	250	-0.1
1550	250	-0.1
1600	250	-0.1
1650	250	-0.1
1700	250	-0.1
1750	250	-0.1
1800	250	-0.1
1850	250	-0.1
1900	250	-0.1
1950	250	-0.1
2000	250	-0.1
0	300	-0.1
50	300	-0.1
100	300	-0.1
150	300	-0.1
200	300	-0.1
250	300	-0.1
300	300	-0.1
350	300	-0.1
400	300	-0.1
450	300	-0.1
500	300	-0.1
550	300	-0.1
600	300	-0.1
650	300	-0.1
700	300	-0.1
750	300	-0.1
800	300	-0.1
850	300	-0.1
900	300	-0.1
950	300	-0.1
1000	300	-0.1
1050	300	-0.1
1100	300	-0.1
1150	300	-0.1
1200	300	-0.1
1250	300	-0.1
1300	300	-0.1
1350	300	-0.1
1400	300	-0.1
1450	300	-0.1
1500	300	-0.1
1550	300	-0.1
1600	300	-0.1
1650	300	-0.1
1700	300	-0.1
1750	300	-0.1
1800	300	-0.1
1850	300	-0.1
1900	300	-0.1
1950	300	-0.1
2000	300	-0.1
0	350	-0.1
50	350	-0.1
100	350	-0.1
150	350	-0.1
200	350	-0.1
250	350	-0.1
300	350	-0.1
350	350	-0.1
400	350	-0.1
450	350	-0.1
500	350	-0.1
550	350	-0.1
600	350	-0.1
650	350	-0.1
700	350	-0.1
750	350	-0.1
800	350	-0.1
850	350	-0.1
900	350	-0.1
950	350	-0.1
1000	350	-0.1
1050	350	-0.1
1100	350	-0.1
1150	350	-0.1
1200	350	-0.1
1250	350	-0.1
1300	350	-0.1
1350	350	-0.1
1400	350	-0.1
1450	350	-0.1
1500	350	-0.1
1550	350	-0.1
1600	350	-0.1
1650	350	-0.1
1700	350	-0.1
1750	350	-0.1
1800	350	-0.1
1850	350	-0.1
1900	350	-0.1
1950	350	-0.1
2000	350	-0.1
0	400	-0.1
50	400	-0.1
100	400	-0.1
150	400	-0.1
200	400	-0.1
250	400	-0.1
300	400	-0.1
350	400	-0.1
400	400	-0.1
450	400	-0.1
500	400	-0.1
550	400	-0.1
600	400	-0.1
650	400	-0.1
700	400	-0.1
750	400	-0.1
800	400	-0.1
850	400	-0.1
900	400	-0.1
950	400	-0.1
1000	400	-0.1
1050	400	-0.1
1100	400	-0.1
1150	400	-0.1
1200	400	-0.1
1250	400	-0.1
1300	400	-0.1
1350	400	-0.1
1400	400	-0.1
1450	400	-0.1
1500	400	-0.1
1550	400	-0.1
1600	400	-0.1
1650	400	-0.1
1700	400	-0.1
1750	400	-0.1
1800	400	-0.1
1850	400	-0.1
1900	400	-0.1
1950	400	-0.1
2000	400	-0.1
0	450	-0.1
50	450	-0.1
100	450	-0.1
150	450	-0.1
200	450	-0.1
250	450	-0.1
300	450	-0.1
350	450	-0.1
400	450	-0.1
450	450	-0.1
500	450	-0.1
550	450	-0.1
600	450	-0.1
650	450	-0.1
700	450	-0.1
750	450	-0.1
800	450	-0.1
850	450	-0.1
900	450	-0.1
950	450	-0.1
1000	450	-0.1
1050	450	-0.1
1100	450	-0.1
1150	450	-0.1
1200	450	-0.1
1250	450	-0.1
1300	450	-0.1
1350	450	-0.1
1400	450	-0.1
1450	450	-0.1
1500	450	-0.1
1550	450	-0.1
1600	450	-0.1
1650	450	-0.1
1700	450	-0.1
1750	450	-0.1
1800	450	-0.1
1850	450	-0.1
1900	450	-0.1
1950	450	-0.1
2000	450	-0.1
0	500	-0.1
50	500	-0.1
100	500	-0.1
150	500	-0.1
200	500	-0.1
250	500	-0.1
300	500	-0.1
350	500	-0.1
400	500	-0.1
450	500	-0.1
500	500	-0.1
550	500	-0.1
600	500	-0.1
650	500	-0.1
700	500	-0.1
750	500	-0.1
800	500	-0.1
850	500	-0.1
900	500	-0.1
950	500	-0.1
1000	500	-0.1
1050	500	-0.1
1100	500	-0.1
1150	500	-0.1
1200	500	-0.1
1250	500	-0.1
1300	500	-0.1
1350	500	-0.1
1400	500	-0.1
1450	500	-0.1
1500	500	-0.1
1550	500	-0.1
1600	500	-0.1
1650	500	-0.1
1700	500	-0.1
1750	500	-0.1
1800	500	-0.1
1850	500	-0.1
1900	500	-0.1
1950	500	-0.1
2000	500	-0.1
0	550	-0.1
50	550	-0.1
100	550	-0.1
150	550	-0.1
200	550	-0.1
250	550	-0.1
300	550	-0.1
350	550	-0.1
400	550	-0.1
450	550	-0.1
500	550	-0.1
550	550	-0.1
600	550	-0.1
650	550	-0.1
700	550	-0.1
750	550	-0.1
800	550	-0.1
850	550	-0.1
900	550	-0.1
950	550	-0.1
1000	550	-0.1
1050	550	-0.1
1100	550	-0.1
1150	550	-0.1
1200	550	-0.1
1250	550	-0.1
1300	550	-0.1
1350	550	-0.1
1400	550	-0.1
1450	550	-0.1
1500	550	-0.1
1550	550	-0.1
1600	550	-0.1
1650	550	-0.1
1700	550	-0.1
1750	550	-0.1
1800	550	-0.1
1850	550	-0.1
1900	550	-0.1
1950	550	-0.1
2000	550	-0.1
0	600	-0.1
50	600	-0.1
100	600	-0.1
150	600	-0.1
200	600	-0.1
250	600	-0.1
300	600	-0.1
350	600	-0.1
400	600	-0.1
450	600	-0.1
500	600	-0.1
550	600	-0.1
600	600	-0.1
650	600	-0.1
700	600	-0.1
750	600	-0.1
800	600	-0.1
850	600	-0.1
900	600	-0.1
950	600	-0.1
1000	600	-0.1
1050	600	-0.1
1100	600	-0.1
1150	600	-0.1
1200	600	-0.1
1250	600	-0.1
1300	600	-0.1
1350	600	-0.1
1400	600	-0.1
1450	600	-0.1
1500	600	-0.1
1550	600	-0.1
1600	600	-0.1
1650	600	-0.1
1700	600	-0.1
1750	600	-0.1
1800	600	-0.1
1850	600	-0.1
1900	600	-0.1
1950	600	-0.1
2000	600	-0.1
0	650	-0.1
50	650	-0.1
100	650	-0.1
150	650	-0.1
200	650	-0.1
250	650	-0.1
300	650	-0.1
350	650	-0.1
400	650	-0.1
450	650	-0.1
500	650	-0.1
550	650	-0.1
600	650	-0.1
650	650	-0.1
700	650	-0.1
750	650	-0.1
800	650	-0.1
850	650	-0.1
900	650	-0.1
950	650	-0.1
1000	650	-0.1
1050	650	-0.1
1100	650	-0.1
1150	650	-0.1
1200	650	-0.1
1250	650	-0.1
1300	650	-0.1
1350	650	-0.1
1400	650	-0.1
1450	650	-0.1
1500	650	-0.1
1550	650	-0.1
1600	650	-0.1
1650	650	-0.1
1700	650	-0.1
1750	650	-0.1
1800	650	-0.1
1850	650	-0.1
1900	650	-0.1
1950	650	-0.1
2000	650	-0.1
0	700	-0.1
50	700	-0.1
100	700	-0.1
150	700	-0.1
200	700	-0.1
250	700	-0.1
300	700	-0.1
350	700	-0.1
400	700	-0.1
450	700	-0.1
500	700	-0.1
550	700	-0.1
600	700	-0.1
650	700	-0.1
700	700	-0.1
750	700	-0.1
800	700	-0.1
850	700	-0.1
900	700	-0.1
950	700	-0.1
1000	700	-0.1
1050	700	-0.1
1100	700	-0.1
1150	700	-0.1
1200	700	-0.1
1250	700	-0.1
1300	700	-0.1
1350	700	-0.1
1400	700	-0.1
1450	700	-0.1
1500	700	-0.1
1550	700	-0.1
1600	700	-0.1
1650	700	-0.1
1700	700	-0.1
1750	700	-0.1
1800	700	-0.1
1850	700	-0.1
1900	700	-0.1
1950	700	-0.1
2000	700	-0.1
0	750	-0.1
50	750	-0.1
100	750	-0.1
150	750	-0.1
200	750	-0.1
250	750	-0.1
300	750	-0.1
350	750	-0.1
400	750	-0.1
450	750	-0.1
500	750	-0.1
550	750	-0.1
600	750	-0.1
650	750	-0.1
700	750	-0.1
750	750	-0.1
800	750	-0.1
850	750	-0.1
900	750	-0.1
950	750	-0.1
1000	750	-0.1
1050	750	-0.1
1100	750	-0.1
1150	750	-0.1
1200	750	-0.1
1250	750	-0.1
1300	750	-0.1
1350	750	-0.1
1400	750	-0.1
1450	750	-0.1
1500	750	-0.1
1550	750	-0.1
1600	750	-0.1
1650	750	-0.1
1700	750	-0.1
1750	750	-0.1
1800	750	-0.1
1850	750	-0.1
1900	750	-0.1
1950	750	-0.1
2000	750	-0.1
0	800	-0.1
50	800	-0.1
100	800	-0.1
150	800	-0.1
200	800	-0.1
250	800	-0.1
300	800	-0.1
350	800	-0.1
400	800	-0.1
450	800	-0.1
500	800	-0.1
550	800	-0.1
600	800	-0.1
650	800	-0.1
700	800	-0.1
750	800	-0.1
800	800	-0.1
850	800	-0.1
900	800	-0.1
950	800	-0.1
1000	800	-0.1
1050	800	-0.1
1100	800	-0.1
1150	800	-0.1
1200	800	-0.1
1250	800	-0.1
1300	800	-0.1
1350	800	-0.1
1400	800	-0.1
1450	800	-0.1
1500	800	-0.1
1550	800	-0.1
1600	800	-0.1
1650	800	-0.1
1700	800	-0.1
1750	800	-0.1
1800	800	-0.1
1850	800	-0.1
1900	800	-0.1
1950	800	-0.1
2000	800	-0.1
0	850	-0.1
50	850	-0.1
100	850	-0.1
150	850	-0.1
200	850	-0.1
250	850	-0.1
300	850	-0.1
350	850	-0.1
400	850	-0.1
450	850	-0.1
500	850	-0.1
550	850	-0.1
600	850	-0.1
650	850	-0.1
700	850	-0.1
750	850	-0.1
800	850	-0.1
850	850	-0.1
900	850	-0.1
950	850	-0.1
1000	850	-0.1
1050	850	-0.1
1100	850	-0.1
1150	850	-0.1
1200	850	-0.1
1250	850	-0.1
1300	850	-0.1
1350	850	-0.1
1400	850	-0.1
1450	850	-0.1
1500	850	-0.1
1550	850	-0.1
1600	850	-0.1
1650	850	-0.1
1700	850	-0.1
1750	850	-0.1
1800	850	-0.1
1850	850	-0.1
1900	850	-0.1
1950	850	-0.1
2000	850	-0.1
0	900	-0.1
50	900	-0.1
100	900	-0.1
150	900	-0.1
200	900	-0.1
250	900	-0.1
300	900	-0.1
350	900	-0.1
[...]
CELL_DATA	1681
SCALARS g_z double 1
LOOKUP_TABLE table0
0.0297696
0.0313943
0.0329394
0.0343686
0.0356924
0.0368092
0.0376087
0.03807
0.0380618
0.0375882
0.0366603
0.0351624
0.0330686
0.0303773
0.0271186
0.0233713
0.0193002
0.0148483
0.00997365
0.00488401
-0.000259168
-0.00538469
-0.0104269
-0.0152476
-0.0197634
-0.0238376
-0.0273687
-0.0303875
-0.0330619
-0.0352046
-0.0366431
-0.0375812
-0.0381087
-0.0381405
-0.0376151
-0.0366938
-0.0356983
-0.0345827
-0.0332679
-0.0319641
-0.03043
0.0339079
0.0359238
0.037878
0.0397219
0.0415007
0.0430463
0.0441793
0.0449003
0.0450011
0.0445381
0.0435763
0.0419248
0.0395486
0.0364366
0.0326197
0.0282071
0.0234714
0.0182565
0.0124268
0.00631396
0.000151948
-0.00599506
-0.0120713
-0.017882
-0.0233388
-0.0282417
-0.0324399
-0.0360101
-0.0392809
-0.0418927
-0.0435068
-0.0445031
-0.0450479
-0.0449843
-0.044185
-0.0429052
-0.0416753
-0.0403082
-0.0385675
-0.0368084
-0.034528
0.038611
0.0411274
0.0435987
0.0459631
0.048252
0.0502765
0.0518344
0.0529054
0.0532543
0.0529157
0.0519371
0.0501114
0.0473946
0.0437677
0.0392623
0.034006
0.0282943
0.0219748
0.0149216
0.00750909
1.66365e-05
-0.00746293
-0.014846
-0.021895
-0.0284791
-0.0343611
-0.0393663
-0.043569
-0.0473083
-0.0502144
-0.0519485
-0.0529252
-0.0533305
-0.0529922
-0.0517751
-0.0499745
-0.0481853
-0.0462502
-0.0439505
-0.0416687
-0.0389038
0.0439165
0.0470487
0.0501695
0.0531921
0.0561178
0.0587464
0.0608643
0.062424
0.0631668
0.0630665
0.0621192
0.0601221
0.0570395
0.0528229
0.0474833
0.0411774
0.0342349
0.0265153
0.0179139
0.00886565
-0.000281591
-0.00941876
-0.0184452
-0.0270519
-0.0350401
-0.0421338
-0.0481355
-0.0531001
-0.0573636
-0.0605567
-0.0623585
-0.0632307
-0.0633992
-0.0626603
-0.0608564
-0.0583509
-0.0558233
-0.0531539
-0.0501486
-0.0472392
-0.0439511
0.0498177
0.0536509
0.0575846
0.0614441
0.0650936
0.0684192
0.0712949
0.0735591
0.0751205
0.0756429
0.074827
0.0726973
0.0694099
0.0646962
0.0583571
0.0507573
0.0423661
0.0329754
0.0224252
0.0113283
0.000345215
-0.0106337
-0.0217251
-0.0323045
-0.0420094
-0.0505744
-0.0578331
-0.0637559
-0.0687219
-0.0722952
-0.0741178
-0.0747968
-0.0748875
-0.0738679
-0.0712743
-0.0678412
-0.0645439
-0.0611252
-0.0572372
-0.0535492
-0.0497267
0.0564329
0.061143
0.0661038
0.071053
0.07571
0.0800329
0.0839642
0.0872094
0.0898275
0.0911585
0.0905956
0.0883783
0.0848441
0.0794971
0.0719261
0.0627091
0.0524646
0.0409294
0.0279023
0.0141911
0.000785615
-0.0126271
-0.0263651
-0.0394705
-0.0513977
-0.0618747
-0.0707492
-0.0778896
-0.0837062
-0.0876941
-0.0894651
-0.0897852
-0.0895589
-0.0879679
-0.084265
-0.0795774
-0.0751938
-0.070732
-0.0657001
-0.0610127
-0.0564759
0.0638849
0.0697433
0.0760041
0.082381
0.0885429
0.0943908
0.0997962
0.104378
0.10812
0.110261
0.11011
0.107873
0.103861
0.0975211
0.0884136
0.0771635
0.0644564
0.0500792
0.0338974
0.0168339
5.77428e-07
-0.0168581
-0.0340004
-0.0503364
-0.0651898
-0.0782021
-0.0891512
-0.0978278
-0.104596
-0.108951
-0.110554
-0.110262
-0.109078
-0.106211
-0.100957
-0.09458
-0.0885132
-0.0824433
-0.0759279
-0.0699609
-0.064383
0.0721846
0.0794538
0.0873393
0.0955546
0.103731
0.111663
0.119086
0.125493
0.130735
0.133989
0.134509
0.132408
0.127929
0.120435
0.109451
0.0956678
0.0798703
0.0619137
0.0417514
0.0204622
-0.000680261
-0.0218732
-0.0433109
-0.0637184
-0.0822243
-0.098397
-0.111955
-0.122537
-0.130394
-0.135067
-0.13633
-0.135139
-0.132634
-0.128056
-0.120755
-0.112205
-0.104049
-0.0960104
-0.0876585
-0.0801172
-0.0732945
0.0814443
0.0904763
0.100364
0.110901
0.121831
0.132661
0.142792
0.151663
0.158643
0.16316
0.164734
0.163039
0.158413
0.149854
0.136591
0.119656
0.100151
0.077862
0.0526974
0.0261308
4.5201e-05
-0.0261218
-0.0529196
-0.078409
-0.100969
-0.120573
-0.137359
-0.150262
-0.158959
-0.163463
-0.164121
-0.161683
-0.157999
-0.151771
-0.141837
-0.130557
-0.120515
-0.110774
-0.100214
-0.0907808
-0.0828355
0.0916337
0.102749
0.115054
0.128436
0.142757
0.157236
0.170919
0.183148
0.192744
0.199309
0.202547
0.20162
0.196917
0.187047
0.170951
0.15003
0.125756
0.0979108
0.0664149
0.0331856
0.000747904
-0.0318034
-0.0653527
-0.0972669
-0.125125
-0.149238
-0.170096
-0.185885
-0.195689
-0.199987
-0.199712
-0.195437
-0.189794
-0.18104
-0.167593
-0.152753
-0.14007
-0.127964
-0.114641
-0.102873
-0.0934696
0.102672
0.116149
0.131315
0.148103
0.166365
0.185205
0.203476
0.22027
0.234078
0.244186
0.249983
0.250322
0.245381
0.233616
0.213949
0.187949
0.15735
0.122196
0.0826813
0.0410238
8.71581e-06
-0.0411388
-0.0831802
-0.123232
-0.158546
-0.189116
-0.215137
-0.234526
-0.246218
-0.250716
-0.249087
-0.242081
-0.23266
-0.219463
-0.201287
-0.181774
-0.16472
-0.148636
-0.131806
-0.117156
-0.105544
0.114513
0.130681
0.149178
0.169996
0.192992
0.217217
0.241373
0.264263
0.283961
0.299181
0.308741
0.311082
0.306106
0.292099
0.26798
0.235557
0.196946
0.152578
0.103023
0.050869
-0.000833617
-0.0526394
-0.105137
-0.155326
-0.200231
-0.239143
-0.271541
-0.29524
-0.309216
-0.313893
-0.310372
-0.299505
-0.284501
-0.264976
-0.240657
-0.215286
-0.192639
-0.171488
-0.150379
-0.132354
-0.11829
0.12684
0.14587
0.168166
0.193677
0.222206
0.252929
0.284537
0.315429
0.343447
0.366104
0.381006
0.386355
0.381909
0.365518
0.3359
0.29542
0.247076
0.191543
0.129602
0.0646182
-0.000301697
-0.0651905
-0.130228
-0.192802
-0.251259
-0.302179
-0.34153
-0.369448
-0.386415
-0.391557
-0.386118
-0.370603
-0.345613
-0.315294
-0.283773
-0.251848
-0.221749
-0.193819
-0.167657
-0.145879
-0.130268
0.139582
0.161779
0.188323
0.219187
0.254213
0.292783
0.333639
0.374734
0.413491
0.44591
0.468048
0.477619
0.474111
0.454896
0.41851
0.367978
0.307388
0.237961
0.160973
0.0807187
0.000374673
-0.0796374
-0.159204
-0.236288
-0.310728
-0.375894
-0.42376
-0.456834
-0.477154
-0.482463
-0.47398
-0.452267
-0.415708
-0.372944
-0.332499
-0.292423
-0.25358
-0.217899
-0.186033
-0.160071
-0.142628
0.152549
0.178292
0.209443
0.246226
0.288744
0.336595
0.388542
0.442162
0.493926
0.538309
0.569779
0.584906
0.582539
0.559791
0.515266
0.452486
0.37653
0.289918
0.195154
0.0973248
-0.000136864
-0.0968011
-0.192674
-0.286116
-0.379649
-0.462071
-0.521503
-0.562294
-0.586683
-0.591996
-0.576113
-0.543774
-0.496834
-0.442781
-0.390131
-0.338486
-0.289781
-0.245714
-0.207675
-0.177116
-0.156415
0.165055
0.194405
0.230305
0.273331
0.323983
0.382153
0.446702
0.514907
0.58212
0.64091
0.683744
0.705701
0.704836
0.678123
0.624354
0.547493
0.453758
0.347447
0.232733
0.115557
-0.000647807
-0.115616
-0.229556
-0.340614
-0.453337
-0.552792
-0.624112
-0.672992
-0.701282
-0.706207
-0.682608
-0.639308
-0.581529
-0.515544
-0.449831
-0.38574
-0.326483
-0.273581
-0.229163
-0.19391
-0.169843
0.176381
0.209078
0.249566
0.298776
0.358102
0.427345
0.505116
0.588914
0.672999
0.7477
0.803564
0.833525
0.833867
0.802526
0.739414
0.648085
0.535843
0.409124
0.273756
0.136688
-0.000444253
-0.136249
-0.272503
-0.404381
-0.530322
-0.640398
-0.723764
-0.781513
-0.811067
-0.813368
-0.785962
-0.735699
-0.664968
-0.584627
-0.506686
-0.431096
-0.360634
-0.298215
-0.247562
-0.207891
-0.181357
0.185988
0.221613
0.266171
0.320943
0.388212
0.467712
0.557847
0.656427
0.756714
0.846723
0.914988
0.952457
0.95378
0.917929
0.845991
0.741102
0.61163
0.466012
0.311597
0.156289
-0.000105479
-0.155127
-0.312152
-0.463148
-0.600254
-0.718945
-0.812739
-0.878307
-0.908785
-0.908754
-0.878467
-0.822432
-0.739816
-0.646173
-0.557143
-0.471166
-0.390489
-0.319404
-0.263213
-0.21967
-0.191077
0.193393
0.231371
0.279126
0.338252
0.411431
0.498739
0.598811
0.709435
0.823713
0.926875
1.00397
1.04616
1.04791
1.0081
0.928454
0.812213
0.669282
0.508982
0.3395
0.169861
1.68326e-05
-0.168177
-0.339592
-0.504087
-0.653094
-0.781634
-0.881091
-0.950201
-0.983675
-0.984275
-0.950973
-0.889496
-0.798544
-0.695403
-0.596993
-0.502167
-0.414147
-0.337044
-0.276575
-0.229961
-0.199194
0.198054
0.237539
0.287317
0.349168
0.425995
0.518187
0.624618
0.743061
0.866776
0.978797
1.0613
1.10616
1.10788
1.06519
0.98038
0.856757
0.705459
0.536079
0.357072
0.178357
0.000185593
-0.176022
-0.356498
-0.529726
-0.687233
-0.823053
-0.925913
-0.996974
-1.03293
-1.03451
-0.999153
-0.934026
-0.837573
-0.728107
-0.623129
-0.522055
-0.429248
-0.348342
-0.285207
-0.236643
-0.204438
0.199749
0.239832
0.290275
0.352941
0.430413
0.523689
0.63224
0.753465
0.880782
0.996282
1.08127
1.12757
1.12948
1.08588
0.999208
0.87297
0.7185
0.545764
0.363497
0.181643
-3.66366e-05
-0.179465
-0.361412
-0.53604
-0.696387
-0.834911
-0.939982
-1.01266
-1.0491
-1.05049
-1.014
-0.947366
-0.850565
-0.74033
-0.631873
-0.527352
-0.433436
-0.351975
-0.288063
-0.238891
-0.206242
0.198291
0.237934
0.287628
0.349182
0.424696
0.515616
0.6219
0.740602
0.865633
0.979192
1.06283
1.10857
1.11047
1.06755
0.982319
0.858286
0.706574
0.536965
0.357966
0.1792
-0.000119764
-0.177143
-0.355035
-0.525825
-0.684236
-0.821509
-0.926018
-0.998501
-1.03439
-1.03553
-0.99904
-0.933077
-0.839033
-0.731653
-0.623492
-0.519117
-0.427182
-0.347688
-0.284908
-0.236529
-0.204467
0.193703
0.23183
0.279437
0.338122
0.409729
0.495537
0.595409
0.70638
0.82176
0.926453
1.00584
1.04997
1.05197
1.0116
0.930619
0.813134
0.669977
0.509841
0.340445
0.170827
9.69331e-05
-0.168585
-0.337731
-0.50028
-0.650822
-0.781523
-0.882034
-0.951885
-0.985985
-0.986759
-0.951769
-0.888887
-0.800183
-0.698873
-0.597051
-0.498737
-0.411543
-0.336044
-0.276175
-0.229898
-0.199343
0.18637
0.222115
0.266498
0.320813
0.386541
0.464587
0.55455
0.653492
0.754454
0.845672
0.916992
0.957102
0.95858
0.921848
0.847846
0.741072
0.611663
0.466628
0.312375
0.15718
0.000239323
-0.154994
-0.310449
-0.460276
-0.599329
-0.720461
-0.814321
-0.879624
-0.911181
-0.911903
-0.879742
-0.822031
-0.741257
-0.648966
-0.556654
-0.467468
-0.387678
-0.31833
-0.262938
-0.219834
-0.191442
0.176723
0.209383
0.249693
0.298545
0.357012
0.425486
0.503196
0.587418
0.672581
0.748785
0.80682
0.83843
0.83832
0.805634
0.7408
0.647992
0.535715
0.409447
0.274243
0.137326
-0.000168317
-0.136099
-0.271318
-0.402433
-0.529468
-0.641028
-0.7243
-0.78161
-0.810658
-0.812416
-0.785493
-0.735951
-0.666326
-0.586362
-0.50545
-0.427171
-0.358049
-0.297811
-0.248121
-0.208915
-0.182255
0.16538
0.194546
0.230282
0.273069
0.323567
0.381664
0.44626
0.514932
0.583614
0.644131
0.688061
0.710503
0.70856
0.680146
0.625194
0.547434
0.45361
0.347594
0.233014
0.115979
-0.000484495
-0.115566
-0.228989
-0.339569
-0.452299
-0.552141
-0.623465
-0.672103
-0.698493
-0.701574
-0.680542
-0.64014
-0.582888
-0.51661
-0.448436
-0.382211
-0.324552
-0.274012
-0.23057
-0.195741
-0.171199
0.152988
0.178543
0.209549
0.246151
0.28863
0.336512
0.388527
0.442585
0.49576
0.54172
0.573988
0.589312
0.585736
0.561326
0.515819
0.452348
0.376399
0.290097
0.195453
0.0977283
-5.49434e-05
-0.0969382
-0.192408
-0.285232
-0.377421
-0.459069
-0.520311
-0.563015
-0.586861
-0.591188
-0.575329
-0.543386
-0.498325
-0.445723
-0.391534
-0.338335
-0.289795
-0.246515
-0.209196
-0.17898
-0.157745
0.140053
0.162042
0.188446
0.219141
0.254126
0.292711
0.333603
0.375055
0.415064
0.448858
0.471617
0.4813
0.476656
0.45596
0.418787
0.367737
0.307286
0.238238
0.161374
0.0811841
0.0004492
-0.079872
-0.159104
-0.235467
-0.307441
-0.370854
-0.422241
-0.459286
-0.480615
-0.486006
-0.474936
-0.450919
-0.417379
-0.377658
-0.336548
-0.295465
-0.255287
-0.218721
-0.187243
-0.161542
-0.143619
0.127058
0.145686
0.167821
0.193146
0.221411
0.251916
0.283509
0.314649
0.343442
0.366967
0.382329
0.387805
0.382813
0.365613
0.335449
0.294634
0.246702
0.191764
0.129966
0.0650151
-0.000318178
-0.065557
-0.130344
-0.192293
-0.2488
-0.298323
-0.339759
-0.370328
-0.388866
-0.394812
-0.387884
-0.370821
-0.346996
-0.31795
-0.285973
-0.253366
-0.222211
-0.193523
-0.167562
-0.146019
-0.130374
0.114374
0.129936
0.148254
0.168889
0.191424
0.215232
0.239361
0.262426
0.282454
0.298063
0.307946
0.310444
0.305507
0.291344
0.266891
0.234283
0.196329
0.152752
0.103349
0.0511993
-0.000925518
-0.053107
-0.105443
-0.155172
-0.198802
-0.236753
-0.269589
-0.294296
-0.310154
-0.316307
-0.312717
-0.301371
-0.285596
-0.265346
-0.240614
-0.214842
-0.19158
-0.169995
-0.148971
-0.13117
-0.117517
0.102287
0.115125
0.13013
0.146789
0.164651
0.18314
0.201446
0.218424
0.232483
0.242857
0.248885
0.24936
0.244543
0.232755
0.212856
0.186742
0.156848
0.122499
0.0831159
0.0414315
-3.4702e-05
-0.0415975
-0.083548
-0.123253
-0.157439
-0.187078
-0.213307
-0.233451
-0.247
-0.253117
-0.251654
-0.244278
-0.233859
-0.219673
-0.201049
-0.181181
-0.163517
-0.146934
-0.130085
-0.115604
-0.104447
0.0910513
0.101557
0.113754
0.1271
0.141149
0.155413
0.169242
0.18171
0.191536
0.198301
0.201699
0.200855
0.196256
0.186369
0.170054
0.149017
0.12541
0.0983155
0.0669068
0.0336259
0.00073717
-0.0322329
-0.0657312
-0.0973815
-0.124229
-0.147481
-0.16851
-0.18495
-0.19649
-0.202348
-0.202283
-0.1977
-0.19109
-0.18136
-0.167486
-0.152328
-0.139085
-0.126491
-0.11309
-0.101407
-0.0923715
0.0809785
0.0897017
0.0995702
0.110178
0.120966
0.13172
0.142115
0.151276
0.158367
0.162921
0.164579
0.162899
0.1583
0.149663
0.136149
0.119044
0.0999865
0.078223
0.0530846
0.0264613
8.89095e-05
-0.0263318
-0.0530871
-0.0784
-0.100317
-0.119405
-0.136377
-0.149799
-0.159573
-0.165015
-0.165838
-0.163176
-0.158798
-0.151851
-0.141559
-0.130057
-0.119977
-0.110245
-0.0996256
-0.0901715
-0.0822113
0.0719118
0.0791804
0.0871293
0.0955008
0.103635
0.111592
0.119359
0.126078
0.131298
0.13442
0.134949
0.132796
0.128265
0.120629
0.109359
0.0953561
0.0797958
0.0621511
0.0419671
0.0206262
-0.000631872
-0.0219066
-0.0432997
-0.0636035
-0.0818202
-0.0978111
-0.111568
-0.122532
-0.130797
-0.135773
-0.137143
-0.135815
-0.132904
-0.127879
-0.120299
-0.111632
-0.103977
-0.0964705
-0.0881012
-0.0804476
-0.0732267
0.0636377
0.0695482
0.075911
0.0824814
0.0886395
0.0945427
0.100305
0.105185
0.108861
0.110813
0.110614
0.108274
0.104171
0.0976694
0.0882739
0.0767999
0.0643054
0.0502109
0.0339958
0.0168846
-4.31055e-05
-0.016965
-0.0340692
-0.0503377
-0.0649707
-0.0778532
-0.0889851
-0.0979569
-0.104982
-0.109518
-0.111215
-0.110849
-0.109363
-0.10614
-0.100661
-0.0942164
-0.0887361
-0.0832738
-0.0767505
-0.0706256
-0.0645584
0.0562895
0.0610639
0.066129
0.0712517
0.0758586
0.0801736
0.0843968
0.0878933
0.0904402
0.0915815
0.0909425
0.0885948
0.0849631
0.0794726
0.0716496
0.062242
0.0522162
0.0409606
0.02791
0.0141622
0.000671259
-0.0128027
-0.0265135
-0.0395751
-0.0513201
-0.0616886
-0.0707203
-0.0780895
-0.0840738
-0.0881777
-0.0900375
-0.0903311
-0.0898802
-0.0880047
-0.0841163
-0.0793637
-0.075526
-0.0716248
-0.0665658
-0.0617203
-0.0567175
0.049775
0.0535813
0.0575934
0.0615601
0.0650213
0.0681773
0.0712212
0.0736879
0.0755282
0.0762335
0.0753626
0.0730979
0.0697334
0.0649253
0.0583977
0.0506481
0.0422882
0.0329768
0.0224089
0.0112972
0.000293244
-0.0106931
-0.0217654
-0.032334
-0.0420355
-0.0506539
-0.0580533
-0.0641345
-0.0690874
-0.0726141
-0.0745027
-0.0751933
-0.0752179
-0.0740733
-0.0713339
-0.0677927
-0.0646172
-0.0613312
-0.0573649
-0.0535674
-0.0496286
0.0440314
0.0470468
0.050213
0.0532606
0.0558377
0.058111
0.0602522
0.0619506
0.063315
0.063771
0.0627965
0.060671
0.057544
0.0532936
0.0478392
0.0414331
0.0343425
0.0265089
0.0179014
0.00886455
-0.00023614
-0.00932469
-0.0183379
-0.0269631
-0.035122
-0.0424275
-0.0485532
-0.0536092
-0.0576824
-0.0606651
-0.0625015
-0.0634108
-0.0636599
-0.0629487
-0.0610381
-0.0583837
-0.0555565
-0.0525958
-0.0494685
-0.0465101
-0.0434703
0.0389852
0.0413963
0.0438927
0.0462168
0.0480495
0.0495885
0.051044
0.0521618
0.0531029
0.0533194
0.0523048
0.0503544
0.0476218
0.0440129
0.0394581
0.0341626
0.0283369
0.0219259
0.0148954
0.00751672
8.4438e-05
-0.00734233
-0.0147165
-0.0217927
-0.0285629
-0.0346593
-0.0397612
-0.0440069
-0.0474954
-0.0501405
-0.0518872
-0.0529092
-0.053432
-0.0531679
-0.0518766
-0.0499309
-0.0477993
-0.0455278
-0.0431051
-0.0408097
-0.0383624
0.0345024
0.0364379
0.0384122
0.0401878
0.0414756
0.0424853
0.0434406
0.0441207
0.0447165
0.0447313
0.0437003
0.0419202
0.0395402
0.0364736
0.032649
0.0282445
0.0234413
0.018174
0.0123939
0.0063305
0.000234221
-0.00586006
-0.0119274
-0.0177602
-0.0233868
-0.0284792
-0.0327465
-0.0363342
-0.0393421
-0.0416872
-0.0433067
-0.0443479
-0.0450181
-0.0450465
-0.0441997
-0.042804
-0.041263
-0.039588
-0.0377456
-0.035986
-0.0340212
0.0305697
0.0321957
0.0337716
0.0351504
0.0361661
0.0369225
0.0375338
0.0378783
0.0380343
0.0377178
0.036667
0.0350288
0.0328856
0.0301998
0.0269457
0.0232316
0.0191676
0.0147345
0.00992613
0.00489208
-0.000198729
-0.0052865
-0.0103173
-0.0151456
-0.0197493
-0.0239261
-0.0275016
-0.0305394
-0.0330881
-0.0351052
-0.0365615
-0.0375386
-0.0381423
-0.0382255
-0.0376704
-0.0366742
-0.035496
-0.0341982
-0.0328126
-0.0314994
-0.0301263

POINT_DATA	1681
SCALARS g_z double 1
LOOKUP_TABLE table0
0.0297696
0.0313943
0.0329394
0.0343686
0.0356924
0.0368092
0.0376087
0.03807
0.0380618
0.0375882
0.0366603
0.0351624
0.0330686
0.0303773
0.0271186
0.0233713
0.0193002
0.0148483
0.00997365
0.00488401
-0.000259168
-0.00538469
-0.0104269
-0.0152476
-0.0197634
-0.0238376
-0.0273687
-0.0303875
-0.0330619
-0.0352046
-0.0366431
-0.0375812
-0.0381087
-0.0381405
-0.0376151
-0.0366938
-0.0356983
-0.0345827
-0.0332679
-0.0319641
-0.03043
0.0339079
0.0359238
0.037878
0.0397219
0.0415007
0.0430463
0.0441793
0.0449003
0.0450011
0.0445381
0.0435763
0.0419248
0.0395486
0.0364366
0.0326197
0.0282071
0.0234714
0.0182565
0.0124268
0.00631396
0.000151948
-0.00599506
-0.0120713
-0.017882
-0.0233388
-0.0282417
-0.0324399
-0.0360101
-0.0392809
-0.0418927
-0.0435068
-0.0445031
-0.0450479
-0.0449843
-0.044185
-0.0429052
-0.0416753
-0.0403082
-0.0385675
-0.0368084
-0.034528
0.038611
0.0411274
0.0435987
0.0459631
0.048252
0.0502765
0.0518344
0.0529054
0.0532543
0.0529157
0.0519371
0.0501114
0.0473946
0.0437677
0.0392623
0.034006
0.0282943
0.0219748
0.0149216
0.00750909
1.66365e-05
-0.00746293
-0.014846
-0.021895
-0.0284791
-0.0343611
-0.0393663
-0.043569
-0.0473083
-0.0502144
-0.0519485
-0.0529252
-0.0533305
-0.0529922
-0.0517751
-0.0499745
-0.0481853
-0.0462502
-0.0439505
-0.0416687
-0.0389038
0.0439165
0.0470487
0.0501695
0.0531921
0.0561178
0.0587464
0.0608643
0.062424
0.0631668
0.0630665
0.0621192
0.0601221
0.0570395
0.0528229
0.0474833
0.0411774
0.0342349
0.0265153
0.0179139
0.00886565
-0.000281591
-0.00941876
-0.0184452
-0.0270519
-0.0350401
-0.0421338
-0.0481355
-0.0531001
-0.0573636
-0.0605567
-0.0623585
-0.0632307
-0.0633992
-0.0626603
-0.0608564
-0.0583509
-0.0558233
-0.0531539
-0.0501486
-0.0472392
-0.0439511
0.0498177
0.0536509
0.0575846
0.0614441
0.0650936
0.0684192
0.0712949
0.0735591
0.0751205
0.0756429
0.074827
0.0726973
0.0694099
0.0646962
0.0583571
0.0507573
0.0423661
0.0329754
0.0224252
0.0113283
0.000345215
-0.0106337
-0.0217251
-0.0323045
-0.0420094
-0.0505744
-0.0578331
-0.0637559
-0.0687219
-0.0722952
-0.0741178
-0.0747968
-0.0748875
-0.0738679
-0.0712743
-0.0678412
-0.0645439
-0.0611252
-0.0572372
-0.0535492
-0.0497267
0.0564329
0.061143
0.0661038
0.071053
0.07571
0.0800329
0.0839642
0.0872094
0.0898275
0.0911585
0.0905956
0.0883783
0.0848441
0.0794971
0.0719261
0.0627091
0.0524646
0.0409294
0.0279023
0.0141911
0.000785615
-0.0126271
-0.0263651
-0.0394705
-0.0513977
-0.0618747
-0.0707492
-0.0778896
-0.0837062
-0.0876941
-0.0894651
-0.0897852
-0.0895589
-0.0879679
-0.084265
-0.0795774
-0.0751938
-0.070732
-0.0657001
-0.0610127
-0.0564759
0.0638849
0.0697433
0.0760041
0.082381
0.0885429
0.0943908
0.0997962
0.104378
0.10812
0.110261
0.11011
0.107873
0.103861
0.0975211
0.0884136
0.0771635
0.0644564
0.0500792
0.0338974
0.0168339
5.77428e-07
-0.0168581
-0.0340004
-0.0503364
-0.0651898
-0.0782021
-0.0891512
-0.0978278
-0.104596
-0.108951
-0.110554
-0.110262
-0.109078
-0.106211
-0.100957
-0.09458
-0.0885132
-0.0824433
-0.0759279
-0.0699609
-0.064383
0.0721846
0.0794538
0.0873393
0.0955546
0.103731
0.111663
0.119086
0.125493
0.130735
0.133989
0.134509
0.132408
0.127929
0.120435
0.109451
0.0956678
0.0798703
0.0619137
0.0417514
0.0204622
-0.000680261
-0.0218732
-0.0433109
-0.0637184
-0.0822243
-0.098397
-0.111955
-0.122537
-0.130394
-0.135067
-0.13633
-0.135139
-0.132634
-0.128056
-0.120755
-0.112205
-0.104049