# vtk DataFile Version 3.0
Gravity inversion using rectangular prisms
ASCII
DATASET UNSTRUCTURED_GRID

POINTS	1200	double
100	100	100
100	100	300
100	100	500
100	100	700
100	100	900
100	300	100
100	300	300
100	300	500
100	300	700
100	300	900
100	500	100
100	500	300
100	500	500
100	500	700
100	500	900
100	700	100
100	700	300
100	700	500
100	700	700
100	700	900
100	900	100
100	900	300
100	900	500
100	900	700
100	900	900
100	1100	100
100	1100	300
100	1100	500
100	1100	700
100	1100	900
100	1300	100
100	1300	300
100	1300	500
100	1300	700
100	1300	900
100	1500	100
100	1500	300
100	1500	500
100	1500	700
100	1500	900
100	1700	100
100	1700	300
100	1700	500
100	1700	700
100	1700	900
100	1900	100
100	1900	300
100	1900	500
100	1900	700
100	1900	900
300	100	100
300	100	300
300	100	500
300	100	700
300	100	900
300	300	100
300	300	300
300	300	500
300	300	700
300	300	900
300	500	100
300	500	300
300	500	500
300	500	700
300	500	900
300	700	100
250	650	250
250	650	350
250	750	250
250	750	350
350	650	250
350	650	350
350	750	250
350	750	350
300	700	500
300	700	700
300	700	900
300	900	100
250	850	250
250	850	350
250	950	250
250	950	350
350	850	250
350	850	350
350	950	250
350	950	350
250	850	450
250	850	550
250	950	450
250	950	550
350	850	450
350	850	550
350	950	450
350	950	550
300	900	700
300	900	900
300	1100	100
250	1050	250
250	1050	350
250	1150	250
250	1150	350
350	1050	250
350	1050	350
350	1150	250
350	1150	350
250	1050	450
250	1050	550
250	1150	450
250	1150	550
350	1050	450
350	1050	550
350	1150	450
350	1150	550
300	1100	700
300	1100	900
300	1300	100
250	1250	250
250	1250	350
250	1350	250
250	1350	350
350	1250	250
350	1250	350
350	1350	250
350	1350	350
300	1300	500
300	1300	700
300	1300	900
300	1500	100
300	1500	300
300	1500	500
300	1500	700
300	1500	900
300	1700	100
300	1700	300
300	1700	500
300	1700	700
300	1700	900
300	1900	100
300	1900	300
300	1900	500
300	1900	700
300	1900	900
500	100	100
500	100	300
500	100	500
500	100	700
500	100	900
500	300	100
500	300	300
500	300	500
500	300	700
500	300	900
500	500	100
500	500	300
500	500	500
500	500	700
500	500	900
500	700	100
450	650	250
450	650	350
450	750	250
450	750	350
550	650	250
550	650	350
550	750	250
550	750	350
450	650	450
450	650	550
450	750	450
450	750	550
550	650	450
550	650	550
550	750	450
550	750	550
500	700	700
500	700	900
450	850	50
450	850	150
450	950	50
450	950	150
550	850	50
550	850	150
550	950	50
550	950	150
450	850	250
450	850	350
450	950	250
450	950	350
550	850	250
550	850	350
550	950	250
550	950	350
450	850	450
450	850	550
450	950	450
450	950	550
550	850	450
550	850	550
550	950	450
550	950	550
450	850	650
450	850	750
450	950	650
450	950	750
550	850	650
550	850	750
550	950	650
550	950	750
500	900	900
450	1050	50
450	1050	150
450	1150	50
450	1150	150
550	1050	50
550	1050	150
550	1150	50
550	1150	150
450	1050	250
450	1050	350
450	1150	250
450	1150	350
550	1050	250
550	1050	350
550	1150	250
550	1150	350
450	1050	450
450	1050	550
450	1150	450
450	1150	550
550	1050	450
550	1050	550
550	1150	450
550	1150	550
450	1050	650
450	1050	750
450	1150	650
450	1150	750
550	1050	650
550	1050	750
550	1150	650
550	1150	750
500	1100	900
500	1300	100
450	1250	250
450	1250	350
450	1350	250
450	1350	350
550	1250	250
550	1250	350
550	1350	250
550	1350	350
450	1250	450
450	1250	550
450	1350	450
450	1350	550
550	1250	450
550	1250	550
550	1350	450
550	1350	550
500	1300	700
500	1300	900
500	1500	100
500	1500	300
500	1500	500
500	1500	700
500	1500	900
500	1700	100
500	1700	300
500	1700	500
500	1700	700
500	1700	900
500	1900	100
500	1900	300
500	1900	500
500	1900	700
500	1900	900
700	100	100
700	100	300
700	100	500
700	100	700
700	100	900
700	300	100
700	300	300
700	300	500
700	300	700
700	300	900
700	500	100
700	500	300
700	500	500
700	500	700
700	500	900
700	700	100
650	650	250
650	650	350
650	750	250
650	750	350
750	650	250
750	650	350
750	750	250
750	750	350
650	650	450
650	650	550
650	750	450
650	750	550
750	650	450
750	650	550
750	750	450
750	750	550
700	700	700
700	700	900
650	850	50
650	850	150
650	950	50
650	950	150
750	850	50
750	850	150
750	950	50
750	950	150
650	850	250
650	850	350
650	950	250
650	950	350
750	850	250
750	850	350
750	950	250
750	950	350
650	850	450
650	850	550
650	950	450
650	950	550
750	850	450
750	850	550
750	950	450
750	950	550
650	850	650
650	850	750
650	950	650
650	950	750
750	850	650
750	850	750
750	950	650
750	950	750
700	900	900
650	1050	50
650	1050	150
650	1150	50
650	1150	150
750	1050	50
750	1050	150
750	1150	50
750	1150	150
650	1050	250
650	1050	350
650	1150	250
650	1150	350
750	1050	250
750	1050	350
750	1150	250
750	1150	350
650	1050	450
650	1050	550
650	1150	450
650	1150	550
750	1050	450
750	1050	550
750	1150	450
750	1150	550
650	1050	650
650	1050	750
650	1150	650
650	1150	750
750	1050	650
750	1050	750
750	1150	650
750	1150	750
700	1100	900
700	1300	100
650	1250	250
650	1250	350
650	1350	250
650	1350	350
750	1250	250
750	1250	350
750	1350	250
750	1350	350
650	1250	450
650	1250	550
650	1350	450
650	1350	550
750	1250	450
750	1250	550
750	1350	450
750	1350	550
700	1300	700
700	1300	900
700	1500	100
700	1500	300
700	1500	500
700	1500	700
700	1500	900
700	1700	100
700	1700	300
700	1700	500
700	1700	700
700	1700	900
700	1900	100
700	1900	300
700	1900	500
700	1900	700
700	1900	900
900	100	100
900	100	300
900	100	500
900	100	700
900	100	900
900	300	100
900	300	300
900	300	500
900	300	700
900	300	900
900	500	100
900	500	300
900	500	500
900	500	700
900	500	900
900	700	100
850	650	250
850	650	350
850	750	250
850	750	350
950	650	250
950	650	350
950	750	250
950	750	350
900	700	500
900	700	700
900	700	900
900	900	100
850	850	250
850	850	350
850	950	250
850	950	350
950	850	250
950	850	350
950	950	250
950	950	350
850	850	450
850	850	550
850	950	450
850	950	550
950	850	450
950	850	550
950	950	450
950	950	550
900	900	700
900	900	900
900	1100	100
850	1050	250
850	1050	350
850	1150	250
850	1150	350
950	1050	250
950	1050	350
950	1150	250
950	1150	350
850	1050	450
850	1050	550
850	1150	450
850	1150	550
950	1050	450
950	1050	550
950	1150	450
950	1150	550
900	1100	700
900	1100	900
900	1300	100
850	1250	250
850	1250	350
850	1350	250
850	1350	350
950	1250	250
950	1250	350
950	1350	250
950	1350	350
900	1300	500
900	1300	700
900	1300	900
900	1500	100
900	1500	300
900	1500	500
900	1500	700
900	1500	900
900	1700	100
900	1700	300
900	1700	500
900	1700	700
900	1700	900
900	1900	100
900	1900	300
900	1900	500
900	1900	700
900	1900	900
1100	100	100
1100	100	300
1100	100	500
1100	100	700
1100	100	900
1100	300	100
1100	300	300
1100	300	500
1100	300	700
1100	300	900
1100	500	100
1050	450	250
1050	450	350
1050	550	250
1050	550	350
1150	450	250
1150	450	350
1150	550	250
1150	550	350
1100	500	500
1100	500	700
1100	500	900
1050	650	50
1050	650	150
1050	750	50
1050	750	150
1150	650	50
1150	650	150
1150	750	50
1150	750	150
1050	650	250
1050	650	350
1050	750	250
1050	750	350
1150	650	250
1150	650	350
1150	750	250
1150	750	350
1050	650	450
1050	650	550
1050	750	450
1050	750	550
1150	650	450
1150	650	550
1150	750	450
1150	750	550
1100	700	700
1100	700	900
1050	850	50
1050	850	150
1050	950	50
1050	950	150
1150	850	50
1150	850	150
1150	950	50
1150	950	150
1050	850	250
1050	850	350
1050	950	250
1050	950	350
1150	850	250
1150	850	350
1150	950	250
1150	950	350
1050	850	450
1050	850	550
1050	950	450
1050	950	550
1150	850	450
1150	850	550
1150	950	450
1150	950	550
1100	900	700
1100	900	900
1050	1050	50
1050	1050	150
1050	1150	50
1050	1150	150
1150	1050	50
1150	1050	150
1150	1150	50
1150	1150	150
1050	1050	250
1050	1050	350
1050	1150	250
1050	1150	350
1150	1050	250
1150	1050	350
1150	1150	250
1150	1150	350
1050	1050	450
1050	1050	550
1050	1150	450
1050	1150	550
1150	1050	450
1150	1050	550
1150	1150	450
1150	1150	550
1100	1100	700
1100	1100	900
1050	1250	50
1050	1250	150
1050	1350	50
1050	1350	150
1150	1250	50
1150	1250	150
1150	1350	50
1150	1350	150
1050	1250	250
1050	1250	350
1050	1350	250
1050	1350	350
1150	1250	250
1150	1250	350
1150	1350	250
1150	1350	350
1050	1250	450
1050	1250	550
1050	1350	450
1050	1350	550
1150	1250	450
1150	1250	550
1150	1350	450
1150	1350	550
1100	1300	700
1100	1300	900
1100	1500	100
1050	1450	250
1050	1450	350
1050	1550	250
1050	1550	350
1150	1450	250
1150	1450	350
1150	1550	250
1150	1550	350
1100	1500	500
1100	1500	700
1100	1500	900
1100	1700	100
1100	1700	300
1100	1700	500
1100	1700	700
1100	1700	900
1100	1900	100
1100	1900	300
1100	1900	500
1100	1900	700
1100	1900	900
1300	100	100
1300	100	300
1300	100	500
1300	100	700
1300	100	900
1300	300	100
1300	300	300
1300	300	500
1300	300	700
1300	300	900
1300	500	100
1250	450	250
1250	450	350
1250	550	250
1250	550	350
1350	450	250
1350	450	350
1350	550	250
1350	550	350
1300	500	500
1300	500	700
1300	500	900
1250	650	50
1250	650	150
1250	750	50
1250	750	150
1350	650	50
1350	650	150
1350	750	50
1350	750	150
1250	650	250
1250	650	350
1250	750	250
1250	750	350
1350	650	250
1350	650	350
1350	750	250
1350	750	350
1250	650	450
1250	650	550
1250	750	450
1250	750	550
1350	650	450
1350	650	550
1350	750	450
1350	750	550
1300	700	700
1300	700	900
1250	850	50
1250	850	150
1250	950	50
1250	950	150
1350	850	50
1350	850	150
1350	950	50
1350	950	150
1250	850	250
1250	850	350
1250	950	250
1250	950	350
1350	850	250
1350	850	350
1350	950	250
1350	950	350
1250	850	450
1250	850	550
1250	950	450
1250	950	550
1350	850	450
1350	850	550
1350	950	450
1350	950	550
1250	850	650
1250	850	750
1250	950	650
1250	950	750
1350	850	650
1350	850	750
1350	950	650
1350	950	750
1300	900	900
1250	1050	50
1250	1050	150
1250	1150	50
1250	1150	150
1350	1050	50
1350	1050	150
1350	1150	50
1350	1150	150
1250	1050	250
1250	1050	350
1250	1150	250
1250	1150	350
1350	1050	250
1350	1050	350
1350	1150	250
1350	1150	350
1250	1050	450
1250	1050	550
1250	1150	450
1250	1150	550
1350	1050	450
1350	1050	550
1350	1150	450
1350	1150	550
1250	1050	650
1250	1050	750
1250	1150	650
1250	1150	750
1350	1050	650
1350	1050	750
1350	1150	650
1350	1150	750
1300	1100	900
1250	1250	50
1250	1250	150
1250	1350	50
1250	1350	150
1350	1250	50
1350	1250	150
1350	1350	50
1350	1350	150
1250	1250	250
[...]
CELL_DATA	1200
SCALARS model double 1
LOOKUP_TABLE table0
-0.00370942
-0.136309
0.454612
1.51865
3.19166
-0.137562
0.9576
-1.6779
-0.756013
1.46504
-0.259805
-6.61894
-5.70728
-2.63321
0.66459
-2.19003
-9.57377
-3.18355
-1.09212
1.94623
-4.54597
-3.73595
4.3179
2.07974
3.77934
-4.42014
-5.39829
4.78522
1.76172
3.56602
-2.45044
-7.77451
-3.61445
-1.67879
1.45577
-0.92494
-4.81235
-6.01063
-3.30803
0.167023
-0.155027
-3.29203
-3.06079
-1.0123
1.60786
-0.17188
0.901523
1.01699
2.03363
3.73948
0.0955172
-1.51965
-0.105746
2.44668
4.88279
-0.516346
-1.15835
-1.53469
0.823449
3.56406
-1.03593
-3.28947
1.0885
2.38101
4.56602
-4.53392
-3.29836
-2.21991
9.01316
12.903
12.8987
16.1339
43.3067
49.0535
28.3753
10.5747
8.94654
-1.19107
24.3923
28.649
36.0389
40.5279
96.8314
103.102
124.721
130.674
34.8038
28.3923
50.4588
46.4022
112.06
104.888
135.131
129.349
20.4304
13.4674
-2.44425
35.3538
39.9171
23.5706
27.7985
124.032
130.261
95.3876
102.327
50.9395
48.0386
41.7096
40.5795
135.089
130.432
111.962
109.644
20.4448
13.4328
-4.90776
8.99818
13.2942
-1.97167
0.872177
41.3621
48.7355
10.4085
17.2081
24.8548
10.485
9.00822
-2.16446
-3.26259
1.37465
3.02944
4.97234
-0.819243
0.492977
-0.0282
2.10853
4.57405
-0.59859
-0.581459
1.54795
3.83363
6.01724
-0.119544
1.22812
2.65198
5.32143
7.36647
-0.301448
-4.13456
-0.588822
3.06232
5.38694
-3.42558
-1.19525
8.92371
6.96568
6.66194
-1.93166
27.6783
31.8938
97.8467
104.674
37.4518
43.8758
125.76
133.615
37.9764
31.0931
113.765
106.115
54.9003
50.2905
138.435
131.674
21.4629
12.4837
3.51145
25.3912
7.99513
40.6157
7.7021
39.84
11.4068
55.3117
274.243
280.569
335.051
340.279
336.002
342.247
411.16
415.983
282.191
272.877
337.275
326.245
339.022
326.981
407.722
392.302
36.8185
20.8323
42.1488
25.6023
41.7246
24.2875
47.2257
29.0576
18.4882
7.98076
40.4179
4.35349
27.839
11.8297
55.9814
9.37414
43.4215
334.703
340.166
273.7
280.658
411.361
416.177
337.35
343.38
337.182
326.683
281.954
274.324
407.728
392.593
339.265
328.089
41.8744
26.2774
36.4258
24.5311
47.0007
29.8112
40.9582
27.747
18.5921
-2.09783
97.7782
106.3
29.7486
38.8433
129.223
137.169
43.7813
52.9873
113.311
107.49
41.5317
39.2355
139.648
134.521
59.0562
58.6955
20.9007
12.9377
-4.47116
-2.32775
7.43198
8.35023
7.63726
-0.860817
-0.426011
1.40895
4.77037
6.7632
-0.133564
-1.7655
1.78711
5.7774
8.18923
-0.164993
1.47029
6.26944
8.87708
9.40965
0.169519
-3.89026
1.67772
4.48185
4.8494
-2.06801
-0.490444
11.6617
5.46716
2.14197
-0.146063
38.4309
45.2302
128.77
136.267
31.4282
36.967
106.688
112.199
56.8149
52.3389
139.864
132.591
47.4088
43.1951
116.417
109.453
15.8172
3.23417
8.38413
42.5373
11.5124
57.2384
7.64569
35.8925
10.2617
48.1774
339.923
345.534
414.759
419.221
285.656
289.221
345.722
348.417
340.209
326.358
408.641
390.918
283.64
269.168
337.502
319.782
38.624
20.6235
43.5837
24.7879
25.692
9.73417
29.7055
13.1348
5.75699
12.0315
57.8361
10.3003
46.0927
10.691
48.2682
8.97829
38.0061
414.675
419.236
340.559
346.266
344.702
347.832
283.391
288.225
408.537
391.152
340.237
327.371
337.053
320.015
282.578
270.125
43.3155
25.4639
37.4624
23.5413
29.5934
13.829
25.6684
13.2404
5.86935
-1.43903
131.729
139.618
45.0929
54.7626
105.491
113.224
34.2843
44.427
141.203
135.633
61.6596
61.4902
116.597
111.531
51.6909
51.6172
15.3254
3.72357
-2.99648
-1.59847
9.56977
6.73492
3.1625
-0.350255
-1.85365
2.93583
5.96776
6.32066
-0.0316444
-1.36622
4.44769
8.33055
9.50812
0.0672179
2.28651
10.0679
11.5847
9.94701
0.761964
2.37678
5.1758
3.73345
0.968975
0.723676
8.88143
5.56434
-5.0957
-10.6149
0.744489
22.9789
25.6396
58.165
59.119
16.8627
10.2015
25.8041
17.8168
15.9158
-14.0266
-21.8703
5.27876
113.102
112.128
138.985
137.244
35.6289
26.8834
40.0335
30.7534
106.973
90.7092
126.383
110.792
10.1559
-3.37968
17.5065
5.8909
-21.5612
-29.1097
5.49497
137.6
136.295
109.402
109.989
39.0041
29.9281
32.5774
24.9973
125.705
111.443
103.998
93.2312
18.1283
7.7332
15.6372
7.16544
-21.7022
-29.0594
0.675507
54.5827
57.9111
22.1513
27.7953
23.1198
16.8362
17.5412
13.0653
11.3357
-14.0422
-21.5401
0.479946
8.26513
5.67416
-4.26641
-9.78283
0.576294
1.25211
5.97565
5.19671
2.69357
0.0657231
1.94316
9.23453
10.7713
9.4241
0.153292
3.9421
12.5188
12.2581
9.01675
1.68135
7.28835
6.70719
0.177115
-4.82345
4.0013
19.3291
7.37951
18.7463
5.00156
21.3839
8.10662
17.1931
0.424705
-6.31039
-22.8922
-27.3994
4.70279
9.77448
5.00205
-0.0992732
5.28061
4.79621
0.992179
-15.2458
12.3951
-3.51031
-1.0427
-18.8488
-0.973567
-22.572
-34.252
-57.6943
-11.4354
-16.6886
-34.0746
-39.5331
-40.2778
-46.6876
-72.9607
-77.1209
-59.0353
-54.5911
1.72039
-13.5421
2.07783
-22.2758
-6.22823
-42.5739
-10.0454
-59.5166
-17.2612
-35.2085
-27.8505
-46.1
-71.2168
-93.8524
-94.7043
-116.737
-49.398
-55.9678
-58.055
-63.0069
-104.196
-103.877
-123.237
-119.193
-91.3488
-74.5711
1.4262
-21.7396
1.41202
-13.3063
-9.31575
-58.7053
-5.88051
-40.943
-28.2301
-46.5072
-18.4864
-36.1153
-94.5783
-116.793
-70.9635
-93.9212
-58.0015
-62.5105
-49.0522
-54.4375
-123.341
-119.237
-104.622
-104.273
-91.9204
-74.5482
4.65079
0.305879
3.22118
10.6589
1.62955
-13.4381
5.27708
6.39766
-1.99016
-19.1811
13.0749
-2.18715
-33.8765
-57.4161
-0.436585
-21.5069
-36.1238
-41.6909
-17.0228
-23.5018
-74.4916
-79.2803
-43.4311
-51.481
-58.5995
-54.374
3.25083
20.6419
7.05627
21.348
11.8687
17.9681
2.61055
22.1949
12.7676
-2.8473
-22.164
-26.724
1.43809
6.53323
8.09495
1.93473
-2.73122
0.173783
3.25342
12.1064
11.2337
7.98345
0.106162
5.06981
12.2836
11.3741
8.37772
1.99038
10.9244
5.87762
-3.13969
-8.09806
6.40099
20.5551
6.47609
10.8146
-8.0636
18.6369
4.03919
5.11279
-14.7849
-22.2332
-37.3682
-38.0548
3.02605
-5.42879
-5.89486
-38.3332
3.57672
-13.2731
-8.51336
-53.4102
-18.9757
-43.1542
-69.0689
-94.1384
-31.6919
-56.9567
-91.4906
-116.808
-60.7602
-64.1223
-106.642
-106.275
-75.2237
-76.0388
-126.924
-122.799
-94.9813
-76.5126
-15.666
-78.4881
-22.1759
-104.278
-21.3343
-101.301
-28.2189
-131.716
-122.921
-145.667
-157.14
-177.979
-154.884
-176.801
-195.07
-214.321
-149.847
-141.777
-176.24
-162.518
-176.265
-162.718
-206.489
-186.2
-131.541
-102.777
-147.197
-118.07
-147.383
-118.392
-163.657
-134.13
-105.518
-21.9772
-104.108
-16.3165
-78.1909
-28.5524
-132.073
-21.8672
-101.798
-157.11
-177.971
-122.785
-145.584
-195.279
-214.381
-155.204
-176.869
-176.397
-162.759
-150.511
-142.838
-206.677
-186.523
-177.01
-164.024
-146.942
-119.954
-132.295
-112.904
-163.571
-136.205
-147.144
-127.52
-105.528
-6.11191
-37.5524
3.41549
-4.07309
-8.67748
-52.9658
1.91312
-12.3508
-68.7667
-93.862
-18.7815
-42.6052
-91.6256
-116.781
-32.3123
-56.9868
-108.743
-109.633
-67.1665
-74.0797
-129.07
-126.496
-81.067
-86.1595
-91.3557
-76.3846
6.83684
10.4322
-6.84347
19.7819
9.61806
3.18847
-14.6463
15.7484
5.79868
-16.8181
-36.5604
-37.557
2.06656
9.42884
7.01238
-1.4542
-5.91958
-0.024327
5.61563
11.8484
10.0205
7.00208
-0.315119
5.68625
10.7964
11.6908
10.9107
1.44212
14.7014
7.12209
-0.358386
-3.60703
7.06217
18.1303
4.59673
3.65382
-15.6406
16.3293
5.51748
5.41433
-11.0593
-21.8641
-33.2596
-32.1566
3.27524
-13.4113
-9.36504
-53.6099
3.45642
-6.36406
-5.07853
-37.752
-32.9259
-57.8135
-92.0201
-117.092
-23.0927
-45.6869
-70.7347
-94.9933
-75.6801
-75.6659
-126.873
-122.043
-63.3567
-64.469
-106.68
-104.288
-90.7289
-70.1083
-21.1695
-101.028
-28.8296
-131.854
-15.703
-76.3754
-22.4366
-102.389
-154.772
-176.518
-194.818
-213.782
-122.538
-145.012
-156.225
-176.668
-175.62
-161.347
-205.566
-184.693
-147.927
-137.124
-173.673
-157.87
-145.118
-117.93
-161.634
-133.976
-126.382
-106.035
-141.158
-120.54
-99.135
-29.0784
-132.272
-21.8316
-101.397
-22.3734
-102.672
-15.8705
-76.6239
-195.066
-213.86
-155.071
-176.584
-156.408
-176.694
-122.646
-144.902
-205.753
-185.089
-176.329
-162.82
-173.834
-158.459
-148.473
-139.107
-161.716
-136.08
-145.434
-127.094
-141.579
-122.599
-128.57
-115.512
-99.1821
-8.74585
-52.6138
1.41536
-13.0307
-5.49701
-37.2008
2.59165
-5.75627
-92.0124
-117.016
-33.5676
-57.8388
-70.3515
-94.544
-22.5365
-44.9687
-128.918
-125.775
-81.5546
-86.0529
-108.253
-107.475
-69.3289
-74.5235
-86.9258
-70.0936
6.25533
1.42306
-15.7986
14.1498
4.95756
5.86918
-10.103
15.8938
6.78746
-16.8087
-32.6716
-31.8568
1.60613
11.308
7.10003
0.725652
-1.81232
-0.0688012
5.15299
9.88081
10.3611
9.6533
-0.510456
-1.24116
10.2918
16.6646
18.7637
0.0872618
5.4271
12.0889
12.2209
10.9082
3.42434
11.5916
5.80508
7.64411
-3.27453
8.27551
10.3814
9.54254
7.40162
1.4555
-5.70064
-7.25283
6.21352
1.82067
1.00203
-14.8863
5.02049
3.4393
2.96978
-1.41933
-8.19957
-25.6602
-37.954
-59.0497
4.73536
-3.478
-7.47584
-20.4686
-35.4804
-39.4488
-32.9933
-4.6952
-37.7972
-8.86792
-54.2086
0.630995
-7.86745
-0.675383
-14.0423
-71.9473
-93.9253
-94.7344
-116.383
-23.4298
-39.6785
-35.0151
-52.673
-100.907
-92.628
-120.026
-111.153
-43.555
-37.9684
-57.9559
-53.2912
-67.988
-53.2473
-9.61518
-54.7658
-5.58594
-37.9988
-0.134761
-13.7871
1.58387
-6.18966
-94.8133
-116.338
-71.7001
-93.6052
-34.9215
-52.7041
-22.744
-39.5563
-120.265
-112.347
-101.334
-97.4445
-58.842
-55.1113
-49.1196
-47.8333
-68.4834
-53.3793
0.0394639
-14.3686
3.75278
2.95999
3.35992
1.08568
2.96742
5.81902
-37.164
-58.2419
-7.04898
-24.3251
-6.23461
-19.8449
6.0049
-2.09524
-32.8095
-39.3137
-33.1833
3.18399
9.41242
-1.49469
13.2549
8.02612
10.7017
9.07713
8.66688
12.0375
2.81052
-5.55404
-7.15462
0.440201
2.98147
11.6141
12.6369
11.9542
-0.381304
-1.45187
10.1014
16.2571
18.2262
-0.916347
1.78191
15.1897
22.7612
25.502
-0.800675
7.786
21.3629
24.1018
22.8841
0.209394
18.2665
22.8237
17.3392
13.0272
3.63243
18.3643
17.7035
18.1
14.1043
27.7659
28.07
29.6573
27.6622
10.63
-0.0859176
-2.80251
2.18914
10.5779
3.04208
10.1367
2.69588
18.6892
2.81524
17.6396
14.0901
6.5723
9.51729
0.304714
27.7101
23.2396
24.089
18.6638
-5.22495
-17.0684
-15.8727
2.15896
9.68678
3.55296
11.5689
2.37368
16.5596
3.97347
17.4451
9.03335
-0.240924
13.2223
5.32767
23.0302
17.7224
25.0887
20.8853
-7.28146
-17.6478
-16.1176
2.9503
17.1875
13.1634
18.0337
18.9547
26.0982
25.2179
24.5484
27.6239
9.94307
-0.74096
-3.19758
0.554035
19.818
23.7455
17.374
12.993
-1.17039
7.63241
21.2936
24.2526
23.4692
-0.558737
1.24764
15.5087
22.9534
25.4148
SCALARS m0 double 1
LOOKUP_TABLE table1
0
0
0
0
0
0
0
0
0
0
0
0
0
0
0
0
0
0
0
0
0
0
0
0
0
0
0
0
0
0
0
0
0
0
0
0
0
0
0
0
0
0
0
0
0
0
0
0
0
0
0
0
0
0
0
0
0
0
0
0
0
0
0
0
0
0
0
0
0
0
0
0
0
0
0
0
0
0
0
0
0
0
0
0
0
0
0
0
0
0
0
0
0
0
0
0
0
0
0
0
0
0
0
0
0
0
0
0
0
0
0
0
0
0
0
0
0
0
0
0
0
0
0
0
0
0
0
0
0
0
0
0
0
0
0
0
0
0
0
0
0
0
0
0
0
0
0
0
0
0
0
0
0
0
0
0
0
0
0
0
0
0
0
0
0
0
0
0
0
0
0
0
0
0
0
0
0
0
0
0
0
0
0
0
450
450
450
450
450
450
450
450
450
450
450
450
450
450
450
450
0
0
0
0
0
0
0
0
0
0
0
0
0
0
0
0
0
450
450
450
450
450
450
450
450
450
450
450
450
450
450
450
450
0
0
0
0
0
0
0
0
0
0
0
0
0
0
0
0
0
0
0
0
0
0
0
0
0
0
0
0
0
0
0
0
0
0
0
0
0
0
0
0
0
0
0
0
0
0
0
0
0
0
0
0
0
0
0
0
0
0
0
0
0
0
0
0
0
0
0
0
0
0
0
0
0
0
0
0
0
0
0
0
0
0
0
0
0
450
450
450
450
450
450
450
450
450
450
450
450
450
450
450
450
0
0
0
0
0
0
0
0
0
0
0
0
0
0
0
0
0
450
450
450
450
450
450
450
450
450
450
450
450
450
450
450
450
0
0
0
0
0
0
0
0
0
0
0
0
0
0
0
0
0
0
0
0
0
0
0
0
0
0
0
0
0
0
0
0
0
0
0
0
0
0
0
0
0
0
0
0
0
0
0
0
0
0
0
0
0
0
0
0
0
0
0
0
0
0
0
0
0
0
0
0
0
0
0
0
0
0
0
0
0
0
0
0
0
0
0
0
0
0
0
0
0
0
0
0
0
0
0
0
0
0
0
0
0
0
0
0
0
0
0
0
0
0
0
0
0
0
0
0
0
0
0
0
0
0
0
0
0
0
0
0
0
0
0
0
0
0
0
0
0
0
0
0
0
0
0
0
0
0
0
0
0
0
0
0
0
0
0
0
0
0
0
0
0
0
0
0
0
0
0
0
0
0
0
0
0
0
0
0
0
0
0
0
0
0
0
0
0
0
0
0
0
0
0
0
0
0
0
0
0
0
0
0
0
0
0
0
0
0
0
0
0
0
0
0
0
0
0
0
0
0
0
0
0
0
0
0
0
0
0
0
0
0
0
0
0
0
0
0
0
0
0
0
0
0
0
0
0
0
0
0
0
0
0
0
0
0
0
0
0
0
0
0
0
0
0
0
0
0
0
0
0
0
0
0
0
0
0
0
0
0
0
0
0
0
0
0
0
0
0
0
0
0
0
0
0
0
0
0
0
0
0
0
0
0
0
0
0
0
0
0
0
0
0
0
0
0
0
0
0
0
0
0
0
0
0
0
0
0
0
0
0
0
0
0
0
0
0
0
0
0
0
0
0
0
0
0
0
0
0
0
0
0
0
0
0
0
0
0
0
0
0
0
0
0
0
0
0
0
0
0
0
0
0
0
0
0
0
0
0
0
0
0
0
0
0
0
0
0
0
0
0
0
0
0
0
0
0
0
0
0
0
0
0
0
0
0
0
0
0
0
0
0
0
0
0
0
0
0
0
0
0
0
0
0
0
0
0
0
0
0
0
0
0
0
0
0
0
0
0
0
0
0
0
0
0
0
0
0
0
0
0
0
0
0
0
0
0
0
0
0
0
0
0
0
0
0
0
0
0
0
0
0
0
0
0
0
0
0
0
0
0
0
0
0
0
0
0
0
0
0
0
0
0
0
0
0
0
0
0
0
0
0
0
0
0
0
0
0
0
0
0
0
0
0
0
0
0
0
0
0
0
0
0
0
0
0
0
0
0
0
0
0
0
0
0
0
0
0
0
0
0
0
0
0
0
0
0
0
0
0
0
0
0
0
0
0
0
0
0
0
0
0
0
0
0
0
0
0
0
0
0
0
0
0
0
0
0
0
0
0
0
0
0
0
0
0
0
0
0
0
0
0
0
0
0
0
0
0
0
0
0
0
0
0
0
0
0
0
0
0
0
0
0
0
0
0
0
0
0
0
0
0
0
0
0
0
0
0
0
0
0
0
0
0
0
0
0
0
0
0
0
0
0
0
0
0
0
0
0
0
0
0
0
0
0
0
0
0
0
0
0
0
0
0
0
0
0
0
0
0
0
0
0
0
0
0
0
0
0
0
0
0
0
0
0
0
0
0
0
0
0
0
0
0
0
0
0
0
0
0
0
0
0
0
0
0
0
0
0
0
0
0
0
0
0
0
0
0
0
0
0
0
0
0
0
0
0
0
0
0
0
0
0
0
0
0
0
0
0
0
0
0
0
0
0
0
0
0
0
0
0
0
0
0
0
0
0
0
0
0
0
0
0
0
0
0
0
0
0
0
0
0
0
0
0
0
0
0
0
0
0
0
0
0
0
0
0
0
0
0
0
0
0
0
0
0
0
0
0
0
0
0
0
0
0
0
0
0
0
0
0
0
0
0
0
0
0
0
0
0
0
0
0
0
0
0
0
0
0
0
0
0
0
0
0
SCALARS m0s double 1
LOOKUP_TABLE table2
0
0
0
0
0
0
0
0
0
0
0
0
0
0
0
0
0
0
0
0
0
0
0
0
0
0
0
0
0
0
0
0
0
0
0
0
0
0
0
0
0
0
0
0
0
0
0
0
0
0
0
0
0
0
0
0
0
0
0
0
0
0
0
0
0
0
0
0
0
0
0
0
0
0
0
0
0
0
0
0
0
0
0
0
0
0
0
0
0
0
0
0
0
0
0
0
0
0
0
0
0
0
0
0
0
0
0
0
0
0
0
0
0
0
0
0
0
0
0
0
0
0
0
0
0
0
0
0
0
0
0
0
0
0
0
0
0
0
0
0
0
0
0
0
0
0
0
0
0
0
0
0
0
0
0
0
0
0
0
0
0
0
0
0
0
0
0
0
0
0
0
0
0
0
0
0
0
0
0
0
0
0
0
0
0
0
0
0
0
0
0
0
0
0
0
0
0
0
0
0
0
0
0
0
0
0
0
0
0
0
0
0
0
0
0
0
0
0
0
0
0
0
0
0
0
0
0
0
0
0
0
0
0
0
0
0
0
0
0
0
0
0
0
0
0
0
0
0
0
0
0
0
0
0
0
0
0
0
0
0
0
0
0
0
0
0
0
0
0
0
0
0
0
0
0
0
0
0
0
0
0
0
0
0
0
0
0
0
0
0
0
0
0
0
0
0
0
0
0
0
0
0
0
0
0
0
0
0
0
0
0
0
0
0
0
0
0
0
0
0
0
0
0
0
0
0
0
0
0
0
0
0
0
0
0
0
0
0
0
0
0
0
0
0
0
0
0
0
0
0
0
0
0
0
0
0
0
0
0
0
0
0
0
0
0
0
0
0
0
0
0
0
0
0
0
0
0
0
0
0
0
0
0
0
0
0
0
0
0
0
0
0
0
0
0
0
0
0
0
0
0
0
0
0
0
0
0
0
0
0
0
0
0
0
0
0
0
0
0
0
0
0
0
0
0
0
0
0
0
0
0
0
0
0
0
0
0
0
0
0
0
0
0
0
0
0
0
0
0
0
0
0
0
0
0
0
0
0
0
0
0
0
0
0
0
0
0
0
0
0
0
0
0
0
0
0
0
0
0
0
0
0
0
0
0
0
0
0
0
0
0
0
0
0
0
0
0
0
0
0
0
0
0
0
0
0
0
0
0
0
0
0
0
0
0
0
0
0
0
0
0
0
0
0
0
0
0
0
0
0
0
0
0
0
0
0
0
0
0
0
0
0
0
0
0
0
0
0
0
0
0
0
0
0
0
0
0
0
0
0
0
0
0
0
0
0
0
0
0
0
0
0
0
0
0
0
0
0
0
0
0
0
0
0
0
0
0
0
0
0
0
0
0
0
0
0
0
0
0
0
0
0
0
0
0
0
0
0
0
0
0
0
0
0
0
0
0
0
0
0
0
0
0
0
0
0
0
0
0
0
0
0
0
0
0
0
0
0
0
0
0
0
0
0
0
0
0
0
0
0
0
0
0
0
0
0
0
0
0
0
0
0
0
0
0
0
0
0
0
0
0
0
0
0
0
0
0
0
0
0
0
0
0
0
0
0
0
0
0
0
0
0
0
0
0
0
0
0
0
0
0
0
0
0
0
0
0
0
0
0
0
0
0
0
0
0
0
0
0
0
0
0
0
0
0
0
0
0
0
0
0
0
0
0
0
0
0
0
0
0
0
0
0
0
0
0
0
0
0
0
0
0
0
0
0
0
0
0
0
0
0
0
0
0
0
0
0
0
0
0
0
0
0
0
0
0
0
0
0
0
0
0
0
0
0
0
0
0
0
0
0
0
0
0
0
0
0
0
0
0
0
0
0
0
0
0
0
0
0
0
0
0
0
0
0
0
0
0
0
0
0
0
0
0
0
0
0
0
0
0
0
0
0
0
0
0
0
0
0
0
0
0
0
0
0
0
0
0
0
0
0
0
0
0
0
0
0
0
0
0
0
0
0
0
0
0
0
0
0
0
0
0
0
0
0
0
0
0
0
0
0
0
0
0
0
0
0
0
0
0
0
0
0
0
0
0
0
0
0
0
0
0
0
0
0
0
0
0
0
0
0
0
0
0
0
0
0
0
0
0
0
0
0
0
0
0
0
0
0
0
0
0
0
0
0
0
0
0
0
0
0
0
0
0
0
0
0
0
0
0
0
0
0
0
0
0
0
0
0
0
0
0
0
0
0
0
0
0
0
0
0
0
0
0
0
0
0
0
0
0
0
0
0
0
0
0
0
0
0
0
0
0
0
0
0
0
0
0
0
0
0
0
0
0
0
0
0
0
0
0
0
0
0
0
0
0
0
0
0
0
0
0
0
0
0
0
0
0
0
0
0
0
0
0
0
0
0
0
0
0
0
0
0
0
0
0
0
0
0
0
0
0
0
0
0
0
0
0
0
0
0
0
0
0
0
0
0
0
0
0
0
0
0
0
0
0
0
0
0
0
0
0
0
0
0
0
0
0
0
0
0
0
0
0
0
0
0
0
0
0
0
0
0
0
0
0
0
0
0
0
0
0
0
0
0
0
0
0
0
0
0
0
0
0
0
0
0
0
0
0
0
0
0
0
0
0
0
0
0
0
0
0
0
0
0
0
0
0
0
0
0
0
0
0
0
0
0
0
0
0
0
0
0
0
0
0
0
0
0
0
0
0
0
0
0
0
0
0
0
0
0
0
0
0
0
0
0
0
0
0
0
0
0
0
0
0
0
0
0
0

POINT_DATA	1200
SCALARS model double 1
LOOKUP_TABLE table0
-0.00370942
-0.136309
0.454612
1.51865
3.19166
-0.137562
0.9576
-1.6779
-0.756013
1.46504
-0.259805
-6.61894
-5.70728
-2.63321
0.66459
-2.19003
-9.57377
-3.18355
-1.09212
1.94623
-4.54597
-3.73595
4.3179
2.07974
3.77934
-4.42014
-5.39829
4.78522
1.76172
3.56602
-2.45044
-7.77451
-3.61445
-1.67879
1.45577
-0.92494
-4.81235
-6.01063
-3.30803
0.167023
-0.155027
-3.29203
-3.06079
-1.0123
1.60786
-0.17188
0.901523
1.01699
2.03363
3.73948
0.0955172
-1.51965
-0.105746
2.44668
4.88279
-0.516346
-1.15835
-1.53469
0.823449
3.56406
-1.03593
-3.28947
1.0885
2.38101
4.56602
-4.53392
-3.29836
-2.21991
9.01316
12.903
12.8987
16.1339
43.3067
49.0535
28.3753
10.5747
8.94654
-1.19107
24.3923
28.649
36.0389
40.5279
96.8314
103.102
124.721
130.674
34.8038
28.3923
50.4588
46.4022
112.06
104.888
135.131
129.349
20.4304
13.4674
-2.44425
35.3538
39.9171
23.5706
27.7985
124.032
130.261
95.3876
102.327
50.9395
48.0386
41.7096
40.5795
135.089
130.432
111.962
109.644
20.4448
13.4328
-4.90776
8.99818
13.2942
-1.97167
0.872177
41.3621
48.7355
10.4085
17.2081
24.8548
10.485
9.00822
-2.16446
-3.26259
1.37465
3.02944
4.97234
-0.819243
0.492977
-0.0282
2.10853
4.57405
-0.59859
-0.581459
1.54795
3.83363
6.01724
-0.119544
1.22812
2.65198
5.32143
7.36647
-0.301448
-4.13456
-0.588822
3.06232
5.38694
-3.42558
-1.19525
8.92371
6.96568
6.66194
-1.93166
27.6783
31.8938
97.8467
104.674
37.4518
43.8758
125.76
133.615
37.9764
31.0931
113.765
106.115
54.9003
50.2905
138.435
131.674
21.4629
12.4837
3.51145
25.3912
7.99513
40.6157
7.7021
39.84
11.4068
55.3117
274.243
280.569
335.051
340.279
336.002
342.247
411.16
415.983
282.191
272.877
337.275
326.245
339.022
326.981
407.722
392.302
36.8185
20.8323
42.1488
25.6023
41.7246
24.2875
47.2257
29.0576
18.4882
7.98076
40.4179
4.35349
27.839
11.8297
55.9814
9.37414
43.4215
334.703
340.166
273.7
280.658
411.361
416.177
337.35
343.38
337.182
326.683
281.954
274.324
407.728
392.593
339.265
328.089
41.8744
26.2774
36.4258
24.5311
47.0007
29.8112
40.9582
27.747
18.5921
-2.09783
97.7782
106.3
29.7486
38.8433
129.223
137.169
43.7813
52.9873
113.311
107.49
41.5317
39.2355
139.648
134.521
59.0562
58.6955
20.9007
12.9377
-4.47116
-2.32775
7.43198
8.35023
7.63726
-0.860817
-0.426011
1.40895
4.77037
6.7632
-0.133564
-1.7655
1.78711
5.7774
8.18923
-0.164993
1.47029
6.26944
8.87708
9.40965
0.169519
-3.89026
1.67772
4.48185
4.8494
-2.06801
-0.490444
11.6617
5.46716
2.14197
-0.146063
38.4309
45.2302
128.77
136.267
31.4282
36.967
106.688
112.199
56.8149
52.3389
139.864
132.591
47.4088
43.1951
116.417
109.453
15.8172
3.23417
8.38413
42.5373
11.5124
57.2384
7.64569
35.8925
10.2617
48.1774
339.923
345.534
414.759
419.221
285.656
289.221
345.722
348.417
340.209
326.358
408.641
390.918
283.64
269.168
337.502
319.782
38.624
20.6235
43.5837
24.7879
25.692
9.73417
29.7055
13.1348
5.75699
12.0315
57.8361
10.3003
46.0927
10.691
48.2682
8.97829
38.0061
414.675
419.236
340.559
346.266
344.702
347.832
283.391
288.225
408.537
391.152
340.237
327.371
337.053
320.015
282.578
270.125
43.3155
25.4639
37.4624
23.5413
29.5934
13.829
25.6684
13.2404
5.86935
-1.43903
131.729
139.618
45.0929
54.7626
105.491
113.224
34.2843
44.427
141.203
135.633
61.6596
61.4902
116.597
111.531
51.6909
51.6172
15.3254
3.72357
-2.99648
-1.59847
9.56977
6.73492
3.1625
-0.350255
-1.85365
2.93583
5.96776
6.32066
-0.0316444
-1.36622
4.44769
8.33055
9.50812
0.0672179
2.28651
10.0679
11.5847
9.94701
0.761964
2.37678
5.1758
3.73345
0.968975
0.723676
8.88143
5.56434
-5.0957
-10.6149
0.744489
22.9789
25.6396
58.165
59.119
16.8627
10.2015
25.8041
17.8168
15.9158
-14.0266
-21.8703
5.27876
113.102
112.128
138.985
137.244
35.6289
26.8834
40.0335
30.7534
106.973
90.7092
126.383
110.792
10.1559
-3.37968
17.5065
5.8909
-21.5612
-29.1097
5.49497
137.6
136.295
109.402
109.989
39.0041
29.9281
32.5774
24.9973
125.705
111.443
103.998
93.2312
18.1283
7.7332
15.6372
7.16544
-21.7022
-29.0594
0.675507
54.5827
57.9111
22.1513
27.7953
23.1198
16.8362
17.5412
13.0653
11.3357
-14.0422
-21.5401
0.479946
8.26513
5.67416
-4.26641
-9.78283
0.576294
1.25211
5.97565
5.19671
2.69357
0.0657231
1.94316
9.23453
10.7713
9.4241
0.153292
3.9421
12.5188
12.2581
9.01675
1.68135
7.28835
6.70719
0.177115
-4.82345
4.0013
19.3291
7.37951
18.7463
5.00156
21.3839
8.10662
17.1931
0.424705
-6.31039
-22.8922
-27.3994
4.70279
9.77448
5.00205
-0.0992732
5.28061
4.79621
0.992179
-15.2458
12.3951
-3.51031
-1.0427
-18.8488
-0.973567
-22.572
-34.252
-57.6943
-11.4354
-16.6886
-34.0746
-39.5331
-40.2778
-46.6876
-72.9607
-77.1209
-59.0353
-54.5911
1.72039
-13.5421
2.07783
-22.2758
-6.22823
-42.5739
-10.0454
-59.5166
-17.2612
-35.2085
-27.8505
-46.1
-71.2168
-93.8524
-94.7043
-116.737
-49.398
-55.9678
-58.055
-63.0069
-104.196
-103.877
-123.237
-119.193
-91.3488
-74.5711
1.4262
-21.7396
1.41202
-13.3063
-9.31575