# vtk DataFile Version 3.0
Gravity inversion using rectangular prisms
ASCII
DATASET UNSTRUCTURED_GRID

POINTS	1200	double
100	100	100
100	100	300
100	100	500
100	100	700
100	100	900
100	300	100
100	300	300
100	300	500
100	300	700
100	300	900
100	500	100
100	500	300
100	500	500
100	500	700
100	500	900
100	700	100
100	700	300
100	700	500
100	700	700
100	700	900
100	900	100
100	900	300
100	900	500
100	900	700
100	900	900
100	1100	100
100	1100	300
100	1100	500
100	1100	700
100	1100	900
100	1300	100
100	1300	300
100	1300	500
100	1300	700
100	1300	900
100	1500	100
100	1500	300
100	1500	500
100	1500	700
100	1500	900
100	1700	100
100	1700	300
100	1700	500
100	1700	700
100	1700	900
100	1900	100
100	1900	300
100	1900	500
100	1900	700
100	1900	900
300	100	100
300	100	300
300	100	500
300	100	700
300	100	900
300	300	100
300	300	300
300	300	500
300	300	700
300	300	900
300	500	100
300	500	300
300	500	500
300	500	700
300	500	900
300	700	100
300	700	300
300	700	500
300	700	700
300	700	900
300	900	100
250	850	250
250	850	350
250	950	250
250	950	350
350	850	250
350	850	350
350	950	250
350	950	350
250	850	450
250	850	550
250	950	450
250	950	550
350	850	450
350	850	550
350	950	450
350	950	550
300	900	700
300	900	900
300	1100	100
250	1050	250
250	1050	350
250	1150	250
250	1150	350
350	1050	250
350	1050	350
350	1150	250
350	1150	350
250	1050	450
250	1050	550
250	1150	450
250	1150	550
350	1050	450
350	1050	550
350	1150	450
350	1150	550
300	1100	700
300	1100	900
300	1300	100
300	1300	300
300	1300	500
300	1300	700
300	1300	900
300	1500	100
300	1500	300
300	1500	500
300	1500	700
300	1500	900
300	1700	100
300	1700	300
300	1700	500
300	1700	700
300	1700	900
300	1900	100
300	1900	300
300	1900	500
300	1900	700
300	1900	900
500	100	100
500	100	300
500	100	500
500	100	700
500	100	900
500	300	100
500	300	300
500	300	500
500	300	700
500	300	900
500	500	100
500	500	300
500	500	500
500	500	700
500	500	900
500	700	100
450	650	250
450	650	350
450	750	250
450	750	350
550	650	250
550	650	350
550	750	250
550	750	350
450	650	450
450	650	550
450	750	450
450	750	550
550	650	450
550	650	550
550	750	450
550	750	550
500	700	700
500	700	900
450	850	50
450	850	150
450	950	50
450	950	150
550	850	50
550	850	150
550	950	50
550	950	150
450	850	250
450	850	350
450	950	250
450	950	350
550	850	250
550	850	350
550	950	250
550	950	350
450	850	450
450	850	550
450	950	450
450	950	550
550	850	450
550	850	550
550	950	450
550	950	550
450	850	650
450	850	750
450	950	650
450	950	750
550	850	650
550	850	750
550	950	650
550	950	750
500	900	900
450	1050	50
450	1050	150
450	1150	50
450	1150	150
550	1050	50
550	1050	150
550	1150	50
550	1150	150
450	1050	250
450	1050	350
450	1150	250
450	1150	350
550	1050	250
550	1050	350
550	1150	250
550	1150	350
450	1050	450
450	1050	550
450	1150	450
450	1150	550
550	1050	450
550	1050	550
550	1150	450
550	1150	550
450	1050	650
450	1050	750
450	1150	650
450	1150	750
550	1050	650
550	1050	750
550	1150	650
550	1150	750
500	1100	900
500	1300	100
450	1250	250
450	1250	350
450	1350	250
450	1350	350
550	1250	250
550	1250	350
550	1350	250
550	1350	350
450	1250	450
450	1250	550
450	1350	450
450	1350	550
550	1250	450
550	1250	550
550	1350	450
550	1350	550
500	1300	700
500	1300	900
500	1500	100
500	1500	300
500	1500	500
500	1500	700
500	1500	900
500	1700	100
500	1700	300
500	1700	500
500	1700	700
500	1700	900
500	1900	100
500	1900	300
500	1900	500
500	1900	700
500	1900	900
700	100	100
700	100	300
700	100	500
700	100	700
700	100	900
700	300	100
700	300	300
700	300	500
700	300	700
700	300	900
700	500	100
700	500	300
700	500	500
700	500	700
700	500	900
700	700	100
650	650	250
650	650	350
650	750	250
650	750	350
750	650	250
750	650	350
750	750	250
750	750	350
650	650	450
650	650	550
650	750	450
650	750	550
750	650	450
750	650	550
750	750	450
750	750	550
700	700	700
700	700	900
650	850	50
650	850	150
650	950	50
650	950	150
750	850	50
750	850	150
750	950	50
750	950	150
650	850	250
650	850	350
650	950	250
650	950	350
750	850	250
750	850	350
750	950	250
750	950	350
650	850	450
650	850	550
650	950	450
650	950	550
750	850	450
750	850	550
750	950	450
750	950	550
650	850	650
650	850	750
650	950	650
650	950	750
750	850	650
750	850	750
750	950	650
750	950	750
700	900	900
650	1050	50
650	1050	150
650	1150	50
650	1150	150
750	1050	50
750	1050	150
750	1150	50
750	1150	150
650	1050	250
650	1050	350
650	1150	250
650	1150	350
750	1050	250
750	1050	350
750	1150	250
750	1150	350
650	1050	450
650	1050	550
650	1150	450
650	1150	550
750	1050	450
750	1050	550
750	1150	450
750	1150	550
650	1050	650
650	1050	750
650	1150	650
650	1150	750
750	1050	650
750	1050	750
750	1150	650
750	1150	750
700	1100	900
700	1300	100
650	1250	250
650	1250	350
650	1350	250
650	1350	350
750	1250	250
750	1250	350
750	1350	250
750	1350	350
650	1250	450
650	1250	550
650	1350	450
650	1350	550
750	1250	450
750	1250	550
750	1350	450
750	1350	550
700	1300	700
700	1300	900
700	1500	100
700	1500	300
700	1500	500
700	1500	700
700	1500	900
700	1700	100
700	1700	300
700	1700	500
700	1700	700
700	1700	900
700	1900	100
700	1900	300
700	1900	500
700	1900	700
700	1900	900
900	100	100
900	100	300
900	100	500
900	100	700
900	100	900
900	300	100
900	300	300
900	300	500
900	300	700
900	300	900
900	500	100
900	500	300
900	500	500
900	500	700
900	500	900
900	700	100
850	650	250
850	650	350
850	750	250
850	750	350
950	650	250
950	650	350
950	750	250
950	750	350
900	700	500
900	700	700
900	700	900
900	900	100
850	850	250
850	850	350
850	950	250
850	950	350
950	850	250
950	850	350
950	950	250
950	950	350
850	850	450
850	850	550
850	950	450
850	950	550
950	850	450
950	850	550
950	950	450
950	950	550
900	900	700
900	900	900
900	1100	100
850	1050	250
850	1050	350
850	1150	250
850	1150	350
950	1050	250
950	1050	350
950	1150	250
950	1150	350
850	1050	450
850	1050	550
850	1150	450
850	1150	550
950	1050	450
950	1050	550
950	1150	450
950	1150	550
900	1100	700
900	1100	900
900	1300	100
850	1250	250
850	1250	350
850	1350	250
850	1350	350
950	1250	250
950	1250	350
950	1350	250
950	1350	350
900	1300	500
900	1300	700
900	1300	900
900	1500	100
900	1500	300
900	1500	500
900	1500	700
900	1500	900
900	1700	100
900	1700	300
900	1700	500
900	1700	700
900	1700	900
900	1900	100
900	1900	300
900	1900	500
900	1900	700
900	1900	900
1100	100	100
1100	100	300
1100	100	500
1100	100	700
1100	100	900
1100	300	100
1100	300	300
1100	300	500
1100	300	700
1100	300	900
1100	500	100
1050	450	250
1050	450	350
1050	550	250
1050	550	350
1150	450	250
1150	450	350
1150	550	250
1150	550	350
1100	500	500
1100	500	700
1100	500	900
1100	700	100
1050	650	250
1050	650	350
1050	750	250
1050	750	350
1150	650	250
1150	650	350
1150	750	250
1150	750	350
1050	650	450
1050	650	550
1050	750	450
1050	750	550
1150	650	450
1150	650	550
1150	750	450
1150	750	550
1100	700	700
1100	700	900
1050	850	50
1050	850	150
1050	950	50
1050	950	150
1150	850	50
1150	850	150
1150	950	50
1150	950	150
1050	850	250
1050	850	350
1050	950	250
1050	950	350
1150	850	250
1150	850	350
1150	950	250
1150	950	350
1050	850	450
1050	850	550
1050	950	450
1050	950	550
1150	850	450
1150	850	550
1150	950	450
1150	950	550
1100	900	700
1100	900	900
1050	1050	50
1050	1050	150
1050	1150	50
1050	1150	150
1150	1050	50
1150	1050	150
1150	1150	50
1150	1150	150
1050	1050	250
1050	1050	350
1050	1150	250
1050	1150	350
1150	1050	250
1150	1050	350
1150	1150	250
1150	1150	350
1050	1050	450
1050	1050	550
1050	1150	450
1050	1150	550
1150	1050	450
1150	1050	550
1150	1150	450
1150	1150	550
1100	1100	700
1100	1100	900
1100	1300	100
1050	1250	250
1050	1250	350
1050	1350	250
1050	1350	350
1150	1250	250
1150	1250	350
1150	1350	250
1150	1350	350
1050	1250	450
1050	1250	550
1050	1350	450
1050	1350	550
1150	1250	450
1150	1250	550
1150	1350	450
1150	1350	550
1100	1300	700
1100	1300	900
1100	1500	100
1050	1450	250
1050	1450	350
1050	1550	250
1050	1550	350
1150	1450	250
1150	1450	350
1150	1550	250
1150	1550	350
1100	1500	500
1100	1500	700
1100	1500	900
1100	1700	100
1100	1700	300
1100	1700	500
1100	1700	700
1100	1700	900
1100	1900	100
1100	1900	300
1100	1900	500
1100	1900	700
1100	1900	900
1300	100	100
1300	100	300
1300	100	500
1300	100	700
1300	100	900
1300	300	100
1300	300	300
1300	300	500
1300	300	700
1300	300	900
1300	500	100
1250	450	250
1250	450	350
1250	550	250
1250	550	350
1350	450	250
1350	450	350
1350	550	250
1350	550	350
1250	450	450
1250	450	550
1250	550	450
1250	550	550
1350	450	450
1350	450	550
1350	550	450
1350	550	550
1300	500	700
1300	500	900
1250	650	50
1250	650	150
1250	750	50
1250	750	150
1350	650	50
1350	650	150
1350	750	50
1350	750	150
1250	650	250
1250	650	350
1250	750	250
1250	750	350
1350	650	250
1350	650	350
1350	750	250
1350	750	350
1250	650	450
1250	650	550
1250	750	450
1250	750	550
1350	650	450
1350	650	550
1350	750	450
1350	750	550
1300	700	700
1300	700	900
1250	850	50
1250	850	150
1250	950	50
1250	950	150
1350	850	50
1350	850	150
1350	950	50
1350	950	150
1250	850	250
1250	850	350
1250	950	250
1250	950	350
1350	850	250
1350	850	350
1350	950	250
1350	950	350
1250	850	450
1250	850	550
1250	950	450
1250	950	550
1350	850	450
1350	850	550
1350	950	450
1350	950	550
1250	850	650
1250	850	750
1250	950	650
1250	950	750
1350	850	650
1350	850	750
1350	950	650
1350	950	750
1300	900	900
1250	1050	50
1250	1050	150
1250	1150	50
1250	1150	150
1350	1050	50
1350	1050	150
1350	1150	50
1350	1150	150
1250	1050	250
1250	1050	350
1250	1150	250
1250	1150	350
1350	1050	250
1350	1050	350
1350	1150	250
1350	1150	350
1250	1050	450
1250	1050	550
1250	1150	450
1250	1150	550
1350	1050	450
1350	1050	550
1350	1150	450
1350	1150	550
1250	1050	650
1250	1050	750
1250	1150	650
1250	1150	750
1350	1050	650
1350	1050	750
1350	1150	650
1350	1150	750
1300	1100	900
1250	1250	50
1250	1250	150
1250	1350	50
1250	1350	150
1350	1250	50
1350	1250	150
1350	1350	50
1350	1350	150
1250	1250	250
1250	1250	350
1250	1350	250
1250	1350	350
1350	1250	250
1350	1250	350
1350	1350	250
1350	1350	350
1250	1250	450
1250	1250	550
1250	1350	450
1250	1350	550
1350	1250	450
1350	1250	550
1350	1350	450
1350	1350	550
1300	1300	700
1300	1300	900
1300	1500	100
1250	1450	250
[...]
CELL_DATA	1200
SCALARS model double 1
LOOKUP_TABLE table0
-0.0308456
-0.502953
0.927661
2.71545
4.49574
-0.208697
1.21902
0.500295
2.20234
3.97076
-0.015113
-4.62398
-1.41596
2.00561
3.95649
-0.518735
-4.52134
-0.0152795
3.51171
4.79718
-0.788885
0.324737
3.0557
5.38931
5.69818
-0.530357
-2.07114
2.42667
5.14756
5.54503
-0.684246
-2.23374
0.312947
3.21128
4.43554
-0.648644
-1.80538
-1.19054
1.48434
3.48765
-0.0884865
-4.54078
-1.71173
1.37989
3.71123
-0.217124
1.46306
1.97766
3.53182
5.20684
0.125197
-2.12573
0.234765
3.54081
5.91654
-0.395489
-0.640728
1.0339
3.78847
5.48488
0.315825
1.09829
3.48849
5.83611
6.15621
-0.551748
4.33362
8.94169
9.93306
7.9353
0.707624
0.629132
5.58166
3.67636
7.74141
12.9818
17.8178
17.5278
21.1153
8.97514
10.738
10.6691
12.1286
20.5525
21.1247
23.0626
23.0794
13.5804
9.52624
-0.461323
3.38778
7.52313
1.68361
5.41351
17.2982
21.0267
12.5088
17.3006
10.4867
12.0051
8.64108
10.5213
22.9706
23.0078
20.1565
20.9081
13.479
9.48536
-0.479129
1.93531
8.46398
9.87818
7.91905
-0.702233
1.64027
4.11957
6.17994
6.3353
-0.687427
1.21718
2.0481
4.47521
6.02409
-0.555543
-1.16234
2.28616
5.13443
7.14278
-0.0860493
1.79187
3.51517
6.36815
7.99331
0.155116
-3.24209
2.11578
5.66781
6.38006
-0.292136
2.33316
7.2993
8.39732
6.09396
0.080097
9.31629
11.3469
15.0697
20.2447
7.19357
12.8268
17.3758
24.3133
13.1292
13.6935
22.6428
22.5201
15.6734
15.7308
26.5244
25.08
13.8824
7.09133
1.4962
9.18327
4.13398
15.5197
3.23711
12.3533
3.5417
18.0931
457.997
463.01
468.376
471.809
467.552
473.139
478.683
482.811
464.586
463.318
472.121
469.892
473.57
470.263
481.656
477.061
19.1892
15.0676
20.8202
16.1007
19.8166
13.7973
21.3899
14.6471
8.16304
4.26202
15.8742
-0.0181021
8.96312
4.16042
19.4366
4.1034
17.061
468.76
472.054
458.464
463.246
479.98
483.507
471.421
474.864
472.203
469.904
464.604
463.289
481.916
477.135
474.14
470.418
20.8133
16.0996
19.1626
15.1021
21.4062
14.655
19.8523
13.8616
8.18359
1.06438
12.8663
18.9678
1.54964
8.02798
22.1629
25.9657
9.52369
13.5498
22.0657
22.3295
12.1273
13.5932
26.977
25.2136
15.9947
16.0188
14.0103
7.25196
-1.33108
3.34
8.49865
9.1261
6.55139
-0.485351
1.14755
3.92491
6.58826
7.07787
-0.0379436
-1.513
2.59156
6.77456
8.85128
-0.0655397
2.18425
7.04402
9.72408
9.82074
0.780388
-3.0173
3.89631
6.54771
5.21511
1.17641
3.26799
9.18337
6.37132
0.782232
2.29353
8.98639
14.8294
21.3212
27.2851
12.8132
17.4144
24.9085
28.3615
17.0902
15.6749
27.8992
24.337
16.9546
12.7616
25.5973
18.9718
7.59868
-3.07907
3.72441
16.006
2.4213
18.5717
4.99238
17.8206
3.35912
17.4699
471.481
476.047
480.897
484.978
468.54
470.481
474.745
477.015
474.453
468.666
482.003
474.9
465.433
456.624
471.075
461.248
16.0748
8.41545
17.0358
8.66073
6.31884
-2.24335
6.00726
-3.05198
-5.6121
3.08623
19.5812
4.51434
19.3141
4.14722
17.389
4.52841
16.3262
481.87
485.476
474.416
477.321
474.437
476.751
467.044
469.533
482.165
474.93
474.813
468.72
470.895
461.141
464.871
456.317
17.028
8.65764
16.0153
8.41271
5.93943
-3.079
6.14308
-2.26596
-5.60089
2.12541
25.4011
28.7215
11.8411
15.9447
21.7682
26.5907
7.9388
15.3114
28.2307
24.3752
17.4807
15.9083
24.6528
18.4971
16.081
12.4735
7.60757
-2.94503
0.333737
5.02484
10.0403
6.84466
1.16627
0.275317
-0.901113
4.7517
6.98946
5.7218
0.122738
-0.66746
5.31807
9.33655
10.2517
0.251289
3.04833
10.5605
12.3133
10.494
1.39363
1.41697
6.54786
5.18642
1.12585
2.37667
13.7669
8.27745
-3.27104
-11.3505
4.63551
16.629
18.904
22.6216
21.4325
23.9417
16.7043
22.1089
10.58
2.67723
-16.1813
-25.5775
8.40506
29.0888
25.7277
27.49
24.4179
15.9807
2.02387
9.70852
-4.47202
15.7182
3.96266
13.9201
1.73201
-13.6385
-26.6927
-20.0601
-32.6837
-28.1704
-36.0014
8.90249
26.6194
23.6419
25.3652
23.3124
9.4736
-4.9961
13.1982
0.251646
13.4623
1.49786
14.3191
3.25222
-20.4109
-32.8728
-14.6189
-27.1506
-28.3432
-36.0113
4.98594
17.335
18.1803
13.4752
16.2578
18.4998
8.3711
23.8729
15.7379
1.64331
-16.423
-25.5162
2.48463
12.9027
7.97301
-3.22228
-11.1041
1.38767
-0.416587
6.27204
5.3037
1.53014
0.289691
3.43958
10.2511
12.2836
10.9569
0.354064
5.15395
13.2888
13.302
9.97237
2.29558
4.53754
7.00852
1.05162
-4.76211
4.7277
16.2068
15.2288
24.6711
15.2034
21.5416
14.9532
19.9852
6.65399
-3.21641
-20.8357
-27.4839
5.99932
20.3225
4.72253
3.01213
-15.3202
0.643915
-17.6144
-35.4339
-54.4591
-11.9398
-25.5567
-32.6208
-44.998
-35.2632
-47.76
-69.169
-77.1303
-56.8566
-55.4816
3.98825
3.24734
4.92883
-2.88969
-7.4078
-40.8147
-10.2649
-51.962
-15.3702
-36.4412
-26.8328
-49.711
-70.0029
-90.7854
-90.1191
-112.759
-52.8227
-62.8078
-65.3318
-73.5202
-101.396
-103.675
-120.867
-119.445
-88.9403
-76.453
3.57637
-1.69225
3.36742
3.82556
-8.25132
-50.5831
-6.86007
-36.0637
-26.1863
-49.5572
-14.6163
-36.3115
-89.0069
-112.185
-66.8217
-89.3621
-65.3491
-73.5626
-52.9329
-62.9286
-120.641
-119.364
-100.851
-103.474
-88.9403
-76.4252
5.68254
3.02751
-15.464
19.3663
4.82024
-32.2479
-53.0957
0.982341
-16.9208
-32.8013
-45.1426
-12.0802
-25.7449
-68.5916
-76.8815
-34.8339
-47.5477
-56.809
-55.3658
4.27462
27.4051
16.4778
20.3656
16.9282
19.8431
7.43969
22.7695
16.3862
-2.68851
-20.6791
-27.231
2.17336
5.01325
7.10938
1.27447
-4.28944
0.441668
3.98108
13.4444
13.7753
10.6913
0.249964
5.54661
13.5703
12.9081
9.55293
2.40077
8.92282
6.28566
-2.67881
-8.45822
6.54216
20.6052
12.0276
10.9122
-4.44926
19.2386
9.41442
4.74857
-12.129
-0.486484
-12.1201
-21.6283
-34.9244
-3.92103
-15.8478
-29.5961
-42.2915
-36.196
-38.59
2.2948
-1.50262
-7.73546
-39.8557
5.3514
-6.07699
-7.48549
-50.5165
-19.8477
-40.904
-70.9915
-92.5802
-31.4994
-55.3542
-91.2031
-115.46
-57.7374
-67.7657
-103.51
-105.789
-71.7053
-79.7552
-124.256
-122.736
-91.9379
-76.9216
-15.1478
-78.7343
-23.1135
-102.962
-22.1463
-100.636
-27.152
-130.483
-123.228
-143.422
-155.281
-174.533
-154.637
-175.145
-194.454
-212.181
-146.469
-139.855
-172.395
-160.018
-173.517
-161.118
-203.39
-183.848
-128.355
-114.825
-143.665
-126.419
-144.407
-126.648
-161.34
-139.308
-105.837
-22.3275
-102.843
-16.9498
-78.3393
-27.9928
-131.256
-22.6318
-102.186
-154.904
-174.178
-121.895
-142.444
-194.842
-212.226
-155.219
-175.122
-172.189
-159.914
-145.941
-139.587
-203.334
-183.786
-173.342
-160.95
-143.611
-126.387
-128.32
-114.997
-161.293
-139.276
-144.324
-126.771
-105.775
-8.30178
-38.8024
4.71052
0.487414
-7.15539
-51.118
3.38168
-6.44259
-69.3026
-91.5056
-19.028
-40.3784
-91.3643
-115.348
-31.9636
-55.5954
-102.924
-105.466
-57.334
-67.4823
-124.05
-122.531
-71.6676
-79.6127
-91.6813
-76.7519
7.12852
10.649
-4.27068
22.4467
12.8394
3.08806
-12.9172
18.0356
8.76592
-21.3518
-34.6985
-0.268484
-12.0201
-29.804
-42.28
-4.3603
-16.0371
-36.0877
-38.3261
2.54061
8.57661
6.06394
-2.52953
-7.95024
0.154269
6.16223
14.0898
13.5703
10.433
-0.269953
7.26733
12.6139
13.0471
11.3886
1.66113
15.7145
7.82679
-0.858451
-5.28221
7.20811
19.1497
9.21488
3.83862
-13.3011
18.5734
9.92143
6.0606
-9.06736
-4.16882
-15.7288
-30.4424
-42.4825
-1.85892
-11.827
-24.4517
-35.3176
-34.3125
-34.773
4.61938
-6.02616
-11.0178
-51.0257
2.2592
-1.23021
-4.44745
-34.6773
-31.708
-56.1574
-90.6295
-115.55
-21.5407
-44.2604
-68.6205
-93.5254
-72.4625
-79.9568
-124.629
-122.776
-60.2764
-68.1872
-104.92
-105.784
-90.1386
-72.9333
-20.6183
-100.513
-29.0767
-132.241
-17.0015
-75.6292
-24.3779
-103.277
-154.191
-175.073
-194.965
-212.44
-120.942
-143.633
-155.493
-175.524
-173.677
-161.022
-203.589
-183.722
-147.206
-139.483
-173.169
-159.549
-143.792
-125.499
-160.703
-138.154
-126.401
-111.435
-141.6
-122.984
-101.825
-29.3538
-133.107
-22.5334
-101.898
-23.3015
-103.484
-16.194
-76.3141
-195.519
-212.654
-155.056
-175.424
-155.965
-175.709
-121.688
-143.861
-203.621
-183.694
-173.698
-160.928
-173.183
-159.516
-147.141
-139.358
-160.668
-138.127
-143.731
-125.631
-141.57
-122.964
-126.415
-111.639
-101.768
-7.74098
-49.8468
2.3904
-7.42158
-5.2252
-35.0324
3.57588
-0.342177
-90.8834
-115.743
-32.6289
-56.489
-68.8099
-93.3662
-20.875
-43.5823
-124.575
-122.627
-72.4439
-79.8278
-104.632
-105.54
-59.7735
-67.874
-89.8769
-72.7719
6.38605
1.24213
-14.0726
15.8518
8.09852
8.41477
-7.8705
22.3839
10.9202
-30.6232
-42.4899
-4.78516
-16.0455
-23.9318
-35.0876
-1.88229
-11.9839
-34.2553
-34.5309
1.88299
12.9463
6.76483
-0.925535
-4.81245
0.0161208
6.27515
12.4187
13.5529
12.2842
-0.450557
-0.763158
10.6607
16.0492
16.9277
0.507348
4.32837
9.92508
8.6611
6.18983
4.01225
13.2955
8.48689
7.75895
-2.91113
2.04065
6.90262
4.61212
3.98003
-3.32102
-12.2091
-14.4941
7.54548
9.53656
1.47428
-9.49009
5.32766
5.50636
3.42258
1.69055
-7.07791
-25.5935
-35.8382
-58.7447
1.06579
-6.1762
-9.59917
-23.0039
-39.3972
-47.335
-71.783
-76.2498
-14.2355
-21.2101
-33.7587
-40.5222
-48.4585
-42.0257
-2.15551
-32.7579
-6.00381
-49.6196
1.12662
-5.67578
0.182791
-12.2685
-69.2063
-93.3972
-92.0678
-115.89
-24.464
-42.0167
-35.7949
-54.9722
-102.971
-102.377
-122.317
-118.025
-53.1045
-58.1386
-65.462
-68.9135
-80.6209
-63.103
-8.40855
-51.5188
-4.02104
-34.2797
2.01105
-12.3232
2.56707
-3.48556
-92.5755
-115.907
-69.4759
-93.1028
-35.6144
-54.7547
-22.6894
-41.0933
-122.249
-117.979
-102.671
-102.207
-65.388
-68.9279
-52.7971
-58.1194
-80.6252
-63.1079
0.671554
-10.5152
4.2854
8.07872
4.76333
5.93015
2.63112
8.24456
-35.3699
-57.8444
-5.76231
-24.077
-6.50466
-21.4591
3.77585
-4.54564
-71.1444
-75.9162
-38.5177
-46.9385
-33.1839
-40.393
-13.6147
-21.0877
-48.3428
-41.9654
3.8513
11.2517
-0.891849
17.6713
10.0286
5.38738
5.15448
-0.434574
7.05687
-2.72573
-12.0183
-14.2863
0.871526
1.91938
9.20739
8.71779
6.63895
-0.305731
-0.785091
10.657
16.5865
17.8051
-0.989482
4.53748
17.2733
23.5839
25.1218
-0.646038
8.69437
22.5782
24.5355
22.0747
0.527116
20.2174
25.2838
18.8573
12.8639
4.09524
11.3223
15.266
12.5307
10.107
34.8126
37.673
39.15
37.849
17.4235
4.78667
-1.02239
6.24667
8.31282
1.75752
2.79282
-5.07971
35.7451
33.8655
29.6925
29.1394
3.07106
-9.34709
-12.2282
6.31861
2.83632
-5.10521
10.0543
1.86687
28.8278
28.3589
33.8514
31.5773
2.37595
-9.72659
-12.379
3.35539
14.5488
10.1469
12.4873
15.3796
34.2662
34.2319
29.044
34.5555
16.4081
4.28187
-1.22724
0.835071
22.2104
26.0736
19.0129
12.94
-1.08715
9.54719
23.0025
24.8197
22.4527
-0.598892
3.31346
17.0976
24.0365
25.8771
SCALARS m0 double 1
LOOKUP_TABLE table1
0
0
0
0
0
0
0
0
0
0
0
0
0
0
0
0
0
0
0
0
0
0
0
0
0
0
0
0
0
0
0
0
0
0
0
0
0
0
0
0
0
0
0
0
0
0
0
0
0
0
0
0
0
0
0
0
0
0
0
0
0
0
0
0
0
0
0
0
0
0
0
0
0
0
0
0
0
0
0
0
0
0
0
0
0
0
0
0
0
0
0
0
0
0
0
0
0
0
0
0
0
0
0
0
0
0
0
0
0
0
0
0
0
0
0
0
0
0
0
0
0
0
0
0
0
0
0
0
0
0
0
0
0
0
0
0
0
0
0
0
0
0
0
0
0
0
0
0
0
0
0
0
0
0
0
0
0
0
0
0
0
0
0
0
0
0
0
0
0
0
450
450
450
450
450
450
450
450
450
450
450
450
450
450
450
450
0
0
0
0
0
0
0
0
0
0
0
0
0
0
0
0
0
450
450
450
450
450
450
450
450
450
450
450
450
450
450
450
450
0
0
0
0
0
0
0
0
0
0
0
0
0
0
0
0
0
0
0
0
0
0
0
0
0
0
0
0
0
0
0
0
0
0
0
0
0
0
0
0
0
0
0
0
0
0
0
0
0
0
0
0
0
0
0
0
0
0
0
0
0
0
0
0
0
0
0
0
0
0
0
0
0
0
0
0
0
0
0
0
0
0
0
0
0
450
450
450
450
450
450
450
450
450
450
450
450
450
450
450
450
0
0
0
0
0
0
0
0
0
0
0
0
0
0
0
0
0
450
450
450
450
450
450
450
450
450
450
450
450
450
450
450
450
0
0
0
0
0
0
0
0
0
0
0
0
0
0
0
0
0
0
0
0
0
0
0
0
0
0
0
0
0
0
0
0
0
0
0
0
0
0
0
0
0
0
0
0
0
0
0
0
0
0
0
0
0
0
0
0
0
0
0
0
0
0
0
0
0
0
0
0
0
0
0
0
0
0
0
0
0
0
0
0
0
0
0
0
0
0
0
0
0
0
0
0
0
0
0
0
0
0
0
0
0
0
0
0
0
0
0
0
0
0
0
0
0
0
0
0
0
0
0
0
0
0
0
0
0
0
0
0
0
0
0
0
0
0
0
0
0
0
0
0
0
0
0
0
0
0
0
0
0
0
0
0
0
0
0
0
0
0
0
0
0
0
0
0
0
0
0
0
0
0
0
0
0
0
0
0
0
0
0
0
0
0
0
0
0
0
0
0
0
0
0
0
0
0
0
0
0
0
0
0
0
0
0
0
0
0
0
0
0
0
0
0
0
0
0
0
0
0
0
0
0
0
0
0
0
0
0
0
0
0
0
0
0
0
0
0
0
0
0
0
0
0
0
0
0
0
0
0
0
0
0
0
0
0
0
0
0
0
0
0
0
0
0
0
0
0
0
0
0
0
0
0
0
0
0
0
0
0
0
0
0
0
0
0
0
0
0
0
0
0
0
0
0
0
0
0
0
0
0
0
0
0
0
0
0
0
0
0
0
0
0
0
0
0
0
0
0
0
0
0
0
0
0
0
0
0
0
0
0
0
0
0
0
0
0
0
0
0
0
0
0
0
0
0
0
0
0
0
0
0
0
0
0
0
0
0
0
0
0
0
0
0
0
0
0
0
0
0
0
0
0
0
0
0
0
0
0
0
0
0
0
0
0
0
0
0
0
0
0
0
0
0
0
0
0
0
0
0
0
0
0
0
0
0
0
0
0
0
0
0
0
0
0
0
0
0
0
0
0
0
0
0
0
0
0
0
0
0
0
0
0
0
0
0
0
0
0
0
0
0
0
0
0
0
0
0
0
0
0
0
0
0
0
0
0
0
0
0
0
0
0
0
0
0
0
0
0
0
0
0
0
0
0
0
0
0
0
0
0
0
0
0
0
0
0
0
0
0
0
0
0
0
0
0
0
0
0
0
0
0
0
0
0
0
0
0
0
0
0
0
0
0
0
0
0
0
0
0
0
0
0
0
0
0
0
0
0
0
0
0
0
0
0
0
0
0
0
0
0
0
0
0
0
0
0
0
0
0
0
0
0
0
0
0
0
0
0
0
0
0
0
0
0
0
0
0
0
0
0
0
0
0
0
0
0
0
0
0
0
0
0
0
0
0
0
0
0
0
0
0
0
0
0
0
0
0
0
0
0
0
0
0
0
0
0
0
0
0
0
0
0
0
0
0
0
0
0
0
0
0
0
0
0
0
0
0
0
0
0
0
0
0
0
0
0
0
0
0
0
0
0
0
0
0
0
0
0
0
0
0
0
0
0
0
0
0
0
0
0
0
0
0
0
0
0
0
0
0
0
0
0
0
0
0
0
0
0
0
0
0
0
0
0
0
0
0
0
0
0
0
0
0
0
0
0
0
0
0
0
0
0
0
0
0
0
0
0
0
0
0
0
0
0
0
0
0
0
0
0
0
0
0
0
0
0
0
0
0
0
0
0
0
0
0
0
0
0
0
0
0
0
0
0
0
0
0
0
0
0
0
0
0
0
0
0
0
0
0
0
0
0
0
0
0
0
0
0
0
0
0
0
0
0
0
0
0
0
0
0
0
0
0
0
0
0
0
0
0
0
0
0
0
0
0
0
0
0
0
0
0
0
0
0
0
0
0
0
0
0
0
0
0
0
0
0
0
0
0
0
0
0
0
0
0
0
0
0
0
0
0
0
0
0
0
0
0
0
0
0
0
0
0
0
0
0
0
0
SCALARS m0s double 1
LOOKUP_TABLE table2
0
0
0
0
0
0
0
0
0
0
0
0
0
0
0
0
0
0
0
0
0
0
0
0
0
0
0
0
0
0
0
0
0
0
0
0
0
0
0
0
0
0
0
0
0
0
0
0
0
0
0
0
0
0
0
0
0
0
0
0
0
0
0
0
0
0
0
0
0
0
0
0
0
0
0
0
0
0
0
0
0
0
0
0
0
0
0
0
0
0
0
0
0
0
0
0
0
0
0
0
0
0
0
0
0
0
0
0
0
0
0
0
0
0
0
0
0
0
0
0
0
0
0
0
0
0
0
0
0
0
0
0
0
0
0
0
0
0
0
0
0
0
0
0
0
0
0
0
0
0
0
0
0
0
0
0
0
0
0
0
0
0
0
0
0
0
0
0
0
0
0
0
0
0
0
0
0
0
0
0
0
0
0
0
0
0
0
0
0
0
0
0
0
0
0
0
0
0
0
0
0
0
0
0
0
0
0
0
0
0
0
0
0
0
0
0
0
0
0
0
0
0
0
0
0
0
0
0
0
0
0
0
0
0
0
0
0
0
0
0
0
0
0
0
0
0
0
0
0
0
0
0
0
0
0
0
0
0
0
0
0
0
0
0
0
0
0
0
0
0
0
0
0
0
0
0
0
0
0
0
0
0
0
0
0
0
0
0
0
0
0
0
0
0
0
0
0
0
0
0
0
0
0
0
0
0
0
0
0
0
0
0
0
0
0
0
0
0
0
0
0
0
0
0
0
0
0
0
0
0
0
0
0
0
0
0
0
0
0
0
0
0
0
0
0
0
0
0
0
0
0
0
0
0
0
0
0
0
0
0
0
0
0
0
0
0
0
0
0
0
0
0
0
0
0
0
0
0
0
0
0
0
0
0
0
0
0
0
0
0
0
0
0
0
0
0
0
0
0
0
0
0
0
0
0
0
0
0
0
0
0
0
0
0
0
0
0
0
0
0
0
0
0
0
0
0
0
0
0
0
0
0
0
0
0
0
0
0
0
0
0
0
0
0
0
0
0
0
0
0
0
0
0
0
0
0
0
0
0
0
0
0
0
0
0
0
0
0
0
0
0
0
0
0
0
0
0
0
0
0
0
0
0
0
0
0
0
0
0
0
0
0
0
0
0
0
0
0
0
0
0
0
0
0
0
0
0
0
0
0
0
0
0
0
0
0
0
0
0
0
0
0
0
0
0
0
0
0
0
0
0
0
0
0
0
0
0
0
0
0
0
0
0
0
0
0
0
0
0
0
0
0
0
0
0
0
0
0
0
0
0
0
0
0
0
0
0
0
0
0
0
0
0
0
0
0
0
0
0
0
0
0
0
0
0
0
0
0
0
0
0
0
0
0
0
0
0
0
0
0
0
0
0
0
0
0
0
0
0
0
0
0
0
0
0
0
0
0
0
0
0
0
0
0
0
0
0
0
0
0
0
0
0
0
0
0
0
0
0
0
0
0
0
0
0
0
0
0
0
0
0
0
0
0
0
0
0
0
0
0
0
0
0
0
0
0
0
0
0
0
0
0
0
0
0
0
0
0
0
0
0
0
0
0
0
0
0
0
0
0
0
0
0
0
0
0
0
0
0
0
0
0
0
0
0
0
0
0
0
0
0
0
0
0
0
0
0
0
0
0
0
0
0
0
0
0
0
0
0
0
0
0
0
0
0
0
0
0
0
0
0
0
0
0
0
0
0
0
0
0
0
0
0
0
0
0
0
0
0
0
0
0
0
0
0
0
0
0
0
0
0
0
0
0
0
0
0
0
0
0
0
0
0
0
0
0
0
0
0
0
0
0
0
0
0
0
0
0
0
0
0
0
0
0
0
0
0
0
0
0
0
0
0
0
0
0
0
0
0
0
0
0
0
0
0
0
0
0
0
0
0
0
0
0
0
0
0
0
0
0
0
0
0
0
0
0
0
0
0
0
0
0
0
0
0
0
0
0
0
0
0
0
0
0
0
0
0
0
0
0
0
0
0
0
0
0
0
0
0
0
0
0
0
0
0
0
0
0
0
0
0
0
0
0
0
0
0
0
0
0
0
0
0
0
0
0
0
0
0
0
0
0
0
0
0
0
0
0
0
0
0
0
0
0
0
0
0
0
0
0
0
0
0
0
0
0
0
0
0
0
0
0
0
0
0
0
0
0
0
0
0
0
0
0
0
0
0
0
0
0
0
0
0
0
0
0
0
0
0
0
0
0
0
0
0
0
0
0
0
0
0
0
0
0
0
0
0
0
0
0
0
0
0
0
0
0
0
0
0
0
0
0
0
0
0
0
0
0
0
0
0
0
0
0
0
0
0
0
0
0
0
0
0
0
0
0
0
0
0
0
0
0
0
0
0
0
0
0
0
0
0
0
0
0
0
0
0
0
0
0
0
0
0
0
0
0
0
0
0
0
0
0
0
0
0
0
0
0
0
0
0
0
0
0
0
0
0
0
0
0
0
0
0
0
0
0
0
0
0
0
0
0
0
0
0
0
0
0
0
0
0
0
0
0
0
0
0
0
0
0
0
0
0
0
0
0
0
0
0
0
0
0
0
0
0
0
0
0
0
0
0
0
0
0
0
0
0
0
0
0
0
0
0
0
0
0
0
0
0
0
0
0
0
0
0
0
0
0
0
0
0
0
0
0
0
0
0
0
0
0
0
0
0
0
0
0
0
0
0
0
0
0
0
0
0
0
0
0
0
0
0
0
0
0
0
0
0
0
0
0

POINT_DATA	1200
SCALARS model double 1
LOOKUP_TABLE table0
-0.0308456
-0.502953
0.927661
2.71545
4.49574
-0.208697
1.21902
0.500295
2.20234
3.97076
-0.015113
-4.62398
-1.41596
2.00561
3.95649
-0.518735
-4.52134
-0.0152795
3.51171
4.79718
-0.788885
0.324737
3.0557
5.38931
5.69818
-0.530357
-2.07114
2.42667
5.14756
5.54503
-0.684246
-2.23374
0.312947
3.21128
4.43554
-0.648644
-1.80538
-1.19054
1.48434
3.48765
-0.0884865
-4.54078
-1.71173
1.37989
3.71123
-0.217124
1.46306
1.97766
3.53182
5.20684
0.125197
-2.12573
0.234765
3.54081
5.91654
-0.395489
-0.640728
1.0339
3.78847
5.48488
0.315825
1.09829
3.48849
5.83611
6.15621
-0.551748
4.33362
8.94169
9.93306
7.9353
0.707624
0.629132
5.58166
3.67636
7.74141
12.9818
17.8178
17.5278
21.1153
8.97514
10.738
10.6691
12.1286
20.5525
21.1247
23.0626
23.0794
13.5804
9.52624
-0.461323
3.38778
7.52313
1.68361
5.41351
17.2982
21.0267
12.5088
17.3006
10.4867
12.0051
8.64108
10.5213
22.9706
23.0078
20.1565
20.9081
13.479
9.48536
-0.479129
1.93531
8.46398
9.87818
7.91905
-0.702233
1.64027
4.11957
6.17994
6.3353
-0.687427
1.21718
2.0481
4.47521
6.02409
-0.555543
-1.16234
2.28616
5.13443
7.14278
-0.0860493
1.79187
3.51517
6.36815
7.99331
0.155116
-3.24209
2.11578
5.66781
6.38006
-0.292136
2.33316
7.2993
8.39732
6.09396
0.080097
9.31629
11.3469
15.0697
20.2447
7.19357
12.8268
17.3758
24.3133
13.1292
13.6935
22.6428
22.5201
15.6734
15.7308
26.5244
25.08
13.8824
7.09133
1.4962
9.18327
4.13398
15.5197
3.23711
12.3533
3.5417
18.0931
457.997
463.01
468.376
471.809
467.552
473.139
478.683
482.811
464.586
463.318
472.121
469.892
473.57
470.263
481.656
477.061
19.1892
15.0676
20.8202
16.1007
19.8166
13.7973
21.3899
14.6471
8.16304
4.26202
15.8742
-0.0181021
8.96312
4.16042
19.4366
4.1034
17.061
468.76
472.054
458.464
463.246
479.98
483.507
471.421
474.864
472.203
469.904
464.604
463.289
481.916
477.135
474.14
470.418
20.8133
16.0996
19.1626
15.1021
21.4062
14.655
19.8523
13.8616
8.18359
1.06438
12.8663
18.9678
1.54964
8.02798
22.1629
25.9657
9.52369
13.5498
22.0657
22.3295
12.1273
13.5932
26.977
25.2136
15.9947
16.0188
14.0103
7.25196
-1.33108
3.34
8.49865
9.1261
6.55139
-0.485351
1.14755
3.92491
6.58826
7.07787
-0.0379436
-1.513
2.59156
6.77456
8.85128
-0.0655397
2.18425
7.04402
9.72408
9.82074
0.780388
-3.0173
3.89631
6.54771
5.21511
1.17641
3.26799
9.18337
6.37132
0.782232
2.29353
8.98639
14.8294
21.3212
27.2851
12.8132
17.4144
24.9085
28.3615
17.0902
15.6749
27.8992
24.337
16.9546
12.7616
25.5973
18.9718
7.59868
-3.07907
3.72441
16.006
2.4213
18.5717
4.99238
17.8206
3.35912
17.4699
471.481
476.047
480.897
484.978
468.54
470.481
474.745
477.015
474.453
468.666
482.003
474.9
465.433
456.624
471.075
461.248
16.0748
8.41545
17.0358
8.66073
6.31884
-2.24335
6.00726
-3.05198
-5.6121
3.08623
19.5812
4.51434
19.3141
4.14722
17.389
4.52841
16.3262
481.87
485.476
474.416
477.321
474.437
476.751
467.044
469.533
482.165
474.93
474.813
468.72
470.895
461.141
464.871
456.317
17.028
8.65764
16.0153
8.41271
5.93943
-3.079
6.14308
-2.26596
-5.60089
2.12541
25.4011
28.7215
11.8411
15.9447
21.7682
26.5907
7.9388
15.3114
28.2307
24.3752
17.4807
15.9083
24.6528
18.4971
16.081
12.4735
7.60757
-2.94503
0.333737
5.02484
10.0403
6.84466
1.16627
0.275317
-0.901113
4.7517
6.98946
5.7218
0.122738
-0.66746
5.31807
9.33655
10.2517
0.251289
3.04833
10.5605
12.3133
10.494
1.39363
1.41697
6.54786
5.18642
1.12585
2.37667
13.7669
8.27745
-3.27104
-11.3505
4.63551
16.629
18.904
22.6216
21.4325
23.9417
16.7043
22.1089
10.58
2.67723
-16.1813
-25.5775
8.40506
29.0888
25.7277
27.49
24.4179
15.9807
2.02387
9.70852
-4.47202
15.7182
3.96266
13.9201
1.73201
-13.6385
-26.6927
-20.0601
-32.6837
-28.1704
-36.0014
8.90249
26.6194
23.6419
25.3652
23.3124
9.4736
-4.9961
13.1982
0.251646
13.4623
1.49786
14.3191
3.25222
-20.4109
-32.8728
-14.6189
-27.1506
-28.3432
-36.0113
4.98594
17.335
18.1803
13.4752
16.2578
18.4998
8.3711
23.8729
15.7379
1.64331
-16.423
-25.5162
2.48463
12.9027
7.97301
-3.22228
-11.1041
1.38767
-0.416587
6.27204
5.3037
1.53014
0.289691
3.43958
10.2511
12.2836
10.9569
0.354064
5.15395
13.2888
13.302
9.97237
2.29558
4.53754
7.00852
1.05162
-4.76211
4.7277
16.2068
15.2288
24.6711
15.2034
21.5416
14.9532
19.9852
6.65399
-3.21641
-20.8357
-27.4839
5.99932
20.3225
4.72253
3.01213
-15.3202
0.643915
-17.6144
-35.4339
-54.4591
-11.9398
-25.5567
-32.6208
-44.998
-35.2632
-47.76
-69.169
-77.1303
-56.8566
-55.4816
3.98825
3.24734
4.92883
-2.88969
-7.4078
-40.8147
-10.2649
-51.962
-15.3702
-36.4412
-26.8328
-49.711
-70.0029
-90.7854
-90.1191
-112.759
-52.8227
-62.8078
-65.3318
-73.5202
-101.396
-103.675
-120.867
-119.445
-88.9403
-76.453
3.57637
-1.69225
3.36742
3.82556
-8.25132
-50.5831
-6.86007
-36.0637
-26.1863
-49.5572
-14.6163
-36.3115
-89.0069
-112.185
-66.8217
-89.3621
-65.3491
-73.5626
-52.9329
-62.9286
-120.641
-119.364
-100.851
-103.474
-88.9403
-76.4252