# vtk DataFile Version 3.0
Gravity inversion using rectangular prisms
ASCII
DATASET UNSTRUCTURED_GRID

POINTS	1459	double
100	100	100
100	100	300
100	100	500
100	100	700
100	100	900
100	300	100
100	300	300
100	300	500
100	300	700
100	300	900
100	500	100
100	500	300
100	500	500
100	500	700
100	500	900
100	700	100
100	700	300
100	700	500
100	700	700
100	700	900
100	900	100
100	900	300
100	900	500
100	900	700
100	900	900
100	1100	100
100	1100	300
100	1100	500
100	1100	700
100	1100	900
100	1300	100
100	1300	300
100	1300	500
100	1300	700
100	1300	900
100	1500	100
100	1500	300
100	1500	500
100	1500	700
100	1500	900
100	1700	100
100	1700	300
100	1700	500
100	1700	700
100	1700	900
100	1900	100
100	1900	300
100	1900	500
100	1900	700
100	1900	900
300	100	100
300	100	300
300	100	500
300	100	700
300	100	900
300	300	100
300	300	300
300	300	500
300	300	700
300	300	900
300	500	100
300	500	300
300	500	500
300	500	700
300	500	900
300	700	100
300	700	300
300	700	500
300	700	700
300	700	900
300	900	100
300	900	300
300	900	500
300	900	700
300	900	900
300	1100	100
300	1100	300
300	1100	500
300	1100	700
300	1100	900
300	1300	100
300	1300	300
300	1300	500
300	1300	700
300	1300	900
300	1500	100
300	1500	300
300	1500	500
300	1500	700
300	1500	900
300	1700	100
300	1700	300
300	1700	500
300	1700	700
300	1700	900
300	1900	100
300	1900	300
300	1900	500
300	1900	700
300	1900	900
500	100	100
500	100	300
500	100	500
500	100	700
500	100	900
500	300	100
500	300	300
500	300	500
500	300	700
500	300	900
500	500	100
500	500	300
500	500	500
500	500	700
500	500	900
500	700	100
450	650	250
450	650	350
450	750	250
450	750	350
550	650	250
550	650	350
550	750	250
550	750	350
500	700	500
500	700	700
500	700	900
500	900	100
500	900	300
500	900	500
500	900	700
500	900	900
500	1100	100
500	1100	300
500	1100	500
500	1100	700
500	1100	900
500	1300	100
500	1300	300
500	1300	500
500	1300	700
500	1300	900
500	1500	100
500	1500	300
500	1500	500
500	1500	700
500	1500	900
500	1700	100
500	1700	300
500	1700	500
500	1700	700
500	1700	900
500	1900	100
500	1900	300
500	1900	500
500	1900	700
500	1900	900
700	100	100
700	100	300
700	100	500
700	100	700
700	100	900
700	300	100
700	300	300
700	300	500
700	300	700
700	300	900
700	500	100
650	450	250
650	450	350
650	550	250
650	550	350
750	450	250
750	450	350
750	550	250
750	550	350
700	500	500
700	500	700
700	500	900
650	650	50
650	650	150
650	750	50
650	750	150
750	650	50
750	650	150
750	750	50
750	750	150
650	650	250
650	650	350
650	750	250
650	750	350
750	650	250
750	650	350
750	750	250
750	750	350
650	650	450
650	650	550
650	750	450
650	750	550
750	650	450
750	650	550
750	750	450
750	750	550
700	700	700
700	700	900
700	900	100
650	850	250
650	850	350
650	950	250
650	950	350
750	850	250
750	850	350
750	950	250
750	950	350
700	900	500
700	900	700
700	900	900
700	1100	100
700	1100	300
700	1100	500
700	1100	700
700	1100	900
700	1300	100
650	1250	250
650	1250	350
650	1350	250
650	1350	350
750	1250	250
750	1250	350
750	1350	250
750	1350	350
700	1300	500
700	1300	700
700	1300	900
700	1500	100
650	1450	250
650	1450	350
650	1550	250
650	1550	350
750	1450	250
750	1450	350
750	1550	250
750	1550	350
700	1500	500
700	1500	700
700	1500	900
700	1700	100
700	1700	300
700	1700	500
700	1700	700
700	1700	900
700	1900	100
700	1900	300
700	1900	500
700	1900	700
700	1900	900
900	100	100
900	100	300
900	100	500
900	100	700
900	100	900
850	250	50
850	250	150
850	350	50
850	350	150
950	250	50
950	250	150
950	350	50
950	350	150
900	300	300
900	300	500
900	300	700
900	300	900
850	450	50
850	450	150
850	550	50
850	550	150
950	450	50
950	450	150
950	550	50
950	550	150
850	450	250
850	450	350
850	550	250
850	550	350
950	450	250
950	450	350
950	550	250
950	550	350
900	500	500
900	500	700
900	500	900
850	650	50
850	650	150
850	750	50
850	750	150
950	650	50
950	650	150
950	750	50
950	750	150
850	650	250
850	650	350
850	750	250
850	750	350
950	650	250
950	650	350
950	750	250
950	750	350
850	650	450
850	650	550
850	750	450
850	750	550
950	650	450
950	650	550
950	750	450
950	750	550
900	700	700
900	700	900
850	850	50
850	850	150
850	950	50
850	950	150
950	850	50
950	850	150
950	950	50
950	950	150
850	850	250
850	850	350
850	950	250
850	950	350
950	850	250
950	850	350
950	950	250
950	950	350
900	900	500
900	900	700
900	900	900
900	1100	100
850	1050	250
850	1050	350
850	1150	250
850	1150	350
950	1050	250
950	1050	350
950	1150	250
950	1150	350
900	1100	500
900	1100	700
900	1100	900
850	1250	50
850	1250	150
850	1350	50
850	1350	150
950	1250	50
950	1250	150
950	1350	50
950	1350	150
850	1250	250
850	1250	350
825	1325	225
825	1325	275
825	1375	225
825	1375	275
875	1325	225
875	1325	275
875	1375	225
875	1375	275
825	1325	325
825	1325	375
825	1375	325
825	1375	375
875	1325	325
875	1325	375
875	1375	325
875	1375	375
925	1225	225
925	1225	275
925	1275	225
925	1275	275
975	1225	225
975	1225	275
975	1275	225
975	1275	275
950	1250	350
925	1325	225
925	1325	275
925	1375	225
925	1375	275
975	1325	225
975	1325	275
975	1375	225
975	1375	275
925	1325	325
925	1325	375
925	1375	325
925	1375	375
975	1325	325
975	1325	375
975	1375	325
975	1375	375
850	1250	450
850	1250	550
850	1350	450
850	1350	550
950	1250	450
950	1250	550
925	1325	425
925	1325	475
925	1375	425
925	1375	475
975	1325	425
975	1325	475
975	1375	425
975	1375	475
950	1350	550
900	1300	700
900	1300	900
850	1450	50
850	1450	150
850	1550	50
850	1550	150
950	1450	50
950	1450	150
950	1550	50
950	1550	150
825	1425	225
825	1425	275
825	1475	225
825	1475	275
875	1425	225
875	1425	275
875	1475	225
875	1475	275
825	1425	325
825	1425	375
825	1475	325
825	1475	375
875	1425	325
875	1425	375
875	1475	325
875	1475	375
850	1550	250
850	1550	350
925	1425	225
925	1425	275
925	1475	225
925	1475	275
975	1425	225
975	1425	275
975	1475	225
975	1475	275
925	1425	325
925	1425	375
925	1475	325
925	1475	375
975	1425	325
975	1425	375
975	1475	325
975	1475	375
925	1525	225
925	1525	275
925	1575	225
925	1575	275
975	1525	225
975	1525	275
975	1575	225
975	1575	275
950	1550	350
850	1450	450
850	1450	550
850	1550	450
850	1550	550
925	1425	425
925	1425	475
925	1475	425
925	1475	475
975	1425	425
975	1425	475
975	1475	425
975	1475	475
950	1450	550
950	1550	450
950	1550	550
900	1500	700
900	1500	900
900	1700	100
850	1650	250
850	1650	350
850	1750	250
850	1750	350
950	1650	250
950	1650	350
950	1750	250
950	1750	350
900	1700	500
900	1700	700
900	1700	900
900	1900	100
900	1900	300
900	1900	500
900	1900	700
900	1900	900
1100	100	100
1100	100	300
1100	100	500
1100	100	700
1100	100	900
1100	300	100
1100	300	300
1100	300	500
1100	300	700
1100	300	900
1050	450	50
1050	450	150
1050	550	50
1050	550	150
1150	450	50
1150	450	150
1150	550	50
1150	550	150
1050	450	250
1050	450	350
1050	550	250
1050	550	350
1150	450	250
1150	450	350
1150	550	250
1150	550	350
1100	500	500
1100	500	700
1100	500	900
1050	650	50
1050	650	150
1050	750	50
1050	750	150
1150	650	50
1150	650	150
1150	750	50
1150	750	150
1050	650	250
1050	650	350
1050	750	250
1050	750	350
1150	650	250
1150	650	350
1150	750	250
1150	750	350
1050	650	450
1050	650	550
1050	750	450
1050	750	550
1150	650	450
1150	650	550
1150	750	450
1150	750	550
1100	700	700
1100	700	900
1050	850	50
1050	850	150
1050	950	50
1050	950	150
1150	850	50
1150	850	150
1150	950	50
1150	950	150
1050	850	250
1050	850	350
1050	950	250
1050	950	350
1150	850	250
1150	850	350
1150	950	250
1150	950	350
1050	850	450
1050	850	550
1050	950	450
1050	950	550
1150	850	450
1150	850	550
1150	950	450
1150	950	550
1100	900	700
1100	900	900
1050	1050	50
1050	1050	150
1050	1150	50
1050	1150	150
1150	1050	50
1150	1050	150
1150	1150	50
1150	1150	150
1050	1050	250
1050	1050	350
1050	1150	250
1050	1150	350
1150	1050	250
1150	1050	350
1150	1150	250
1150	1150	350
1100	1100	500
1100	1100	700
1100	1100	900
1050	1250	50
1050	1250	150
1050	1350	50
1025	1325	125
1025	1325	175
1025	1375	125
1025	1375	175
1075	1325	125
1075	1325	175
1075	1375	125
1075	1375	175
1150	1250	50
1150	1250	150
1150	1350	50
1125	1325	125
1125	1325	175
1125	1375	125
1125	1375	175
1175	1325	125
1175	1325	175
1175	1375	125
1175	1375	175
1025	1225	225
1025	1225	275
1025	1275	225
1025	1275	275
1075	1225	225
1075	1225	275
1075	1275	225
1075	1275	275
1050	1250	350
1025	1325	225
1025	1325	275
1025	1375	225
1025	1375	275
1075	1325	225
1075	1325	275
1075	1375	225
1075	1375	275
1050	1350	350
1125	1225	225
1125	1225	275
1125	1275	225
1125	1275	275
1175	1225	225
1175	1225	275
1175	1275	225
1175	1275	275
1125	1225	325
1125	1225	375
1125	1275	325
1125	1275	375
1175	1225	325
1175	1225	375
1175	1275	325
1175	1275	375
1125	1325	225
1125	1325	275
1125	1375	225
1125	1375	275
1175	1325	225
1175	1325	275
1175	1375	225
1175	1375	275
1150	1350	350
1050	1250	450
1050	1250	550
1025	1325	425
1025	1325	475
1025	1375	425
1025	1375	475
1075	1325	425
1075	1325	475
1075	1375	425
1075	1375	475
1050	1350	550
1150	1250	450
1150	1250	550
1125	1325	425
1125	1325	475
1125	1375	425
1125	1375	475
1175	1325	425
1175	1325	475
1175	1375	425
1175	1375	475
1150	1350	550
1100	1300	700
1100	1300	900
1050	1450	50
1025	1425	125
1025	1425	175
1025	1475	125
1025	1475	175
1075	1425	125
1075	1425	175
1075	1475	125
1075	1475	175
1050	1550	50
1050	1550	150
1150	1450	50
1125	1425	125
1125	1425	175
1125	1475	125
1125	1475	175
1175	1425	125
1175	1425	175
1175	1475	125
1175	1475	175
1150	1550	50
1150	1550	150
1025	1425	225
1025	1425	275
1025	1475	225
1025	1475	275
1075	1425	225
1075	1425	275
1075	1475	225
1075	1475	275
1050	1450	350
1025	1525	225
1025	1525	275
1025	1575	225
1025	1575	275
1075	1525	225
1075	1525	275
1075	1575	225
1075	1575	275
1050	1550	350
1125	1425	225
1125	1425	275
1125	1475	225
1125	1475	275
1175	1425	225
1175	1425	275
1175	1475	225
1175	1475	275
1150	1450	350
1125	1525	225
1125	1525	275
1125	1575	225
1125	1575	275
1175	1525	225
1175	1525	275
1175	1575	225
1175	1575	275
1150	1550	350
1025	1425	425
1025	1425	475
1025	1475	425
1025	1475	475
1075	1425	425
1075	1425	475
1075	1475	425
1075	1475	475
1050	1450	550
1050	1550	450
1050	1550	550
1125	1425	425
1125	1425	475
1125	1475	425
1125	1475	475
1175	1425	425
1175	1425	475
[...]
CELL_DATA	1459
SCALARS model double 1
LOOKUP_TABLE table0
0.364439
-1.35029
-11.6417
-17.1502
-17.4944
0.476616
-0.154696
-9.09185
-13.1944
-12.8698
0.682047
-3.44125
-13.5001
-11.9877
-9.0988
0.905716
-9.66984
-18.4987
-12.8443
-7.69248
0.0902058
-3.58575
-18.3477
-14.3508
-8.66796
-0.162528
-0.387762
-14.9223
-14.6623
-10.4256
-0.0855047
-2.34203
-10.125
-12.6201
-11.4366
-0.034024
-0.99004
-3.37454
-9.45335
-12.0938
0.0101742
3.18228
0.383857
-9.73747
-14.3598
0.121452
2.62749
-12.4653
-17.1731
-18.9456
-0.0131073
-1.14235
-9.30549
-11.897
-10.5353
0.465086
-6.80411
-5.13062
-1.28522
-0.175845
0.781035
-17.3001
0.581892
10.1746
10.2042
0.991649
-15.8523
6.64781
15.938
15.3767
0.0114658
-14.5406
0.103881
10.4738
12.8008
0.11449
-13.3561
-8.60786
0.720258
5.93929
-0.519851
-1.76776
-8.37902
-4.67302
-0.322814
-0.91688
1.01528
-5.32264
-6.10048
-4.94483
-0.022427
-5.31946
-4.21446
-7.96581
-9.59616
-0.0754497
3.26672
-6.35482
-12.5136
-14.9471
-0.198611
-1.69743
-11.6871
-7.02599
-3.26433
-0.599038
-9.6308
6.28934
14.5469
13.2772
3.98383
5.83682
42.6071
42.3172
31.2098
7.69698
8.55901
37.1016
4.49147
35.7734
99.7201
94.1409
96.9718
92.8552
71.7361
57.6869
40.8747
1.11178
9.43594
43.021
45.407
36.9482
-2.83466
-24.2571
4.54047
22.2128
25.3358
-1.44984
-22.0056
-8.075
7.64854
14.3464
-0.775832
-10.6842
-6.8629
1.19689
5.65854
-0.663666
4.79102
-4.33432
-3.9045
-2.63225
0.0665868
-7.72029
-5.40677
-9.48917
-10.6248
0.522295
-19.0413
-14.166
-2.93388
1.6468
0.698507
-4.91957
20.876
24.9113
19.6875
15.3778
34.1486
57.1219
113.049
107.174
46.5883
67.3892
123.378
119.063
89.053
62.4305
40.2253
29.9883
155.523
25.6307
150.303
32.2522
147.79
26.8888
141.497
163.523
140.672
160.913
139.227
173.493
153.245
170.03
151.375
116.764
95.0896
116.036
95.1451
124.594
98.0475
123.856
98.4086
83.8231
52.3597
13.3876
111.212
104.804
38.6272
56.0226
116.896
115.204
41.8919
64.6181
91.6326
69.7863
50.176
-6.16356
-3.45219
30.852
43.3315
40.2519
-3.87785
-14.2008
-6.2877
-18.6028
-8.63509
-2.33625
7.65521
0.534247
8.9425
11.8065
27.8161
30.3236
-2.77677
-20.1549
-9.20826
-22.3846
-9.73546
1.14055
8.65328
-2.06424
5.19085
6.18122
17.8829
19.963
-1.26109
-16.2545
-1.86154
5.13514
7.02841
-0.336114
-7.96051
-8.98584
-7.77973
-6.11464
0.147272
-4.5733
-5.99177
0.565916
2.52197
0.884333
-8.07679
2.3015
-12.2845
0.101322
1.40566
0.883464
-15.7673
5.38759
17.0225
16.7709
12.7098
0.747698
14.6119
15.7637
73.8073
2.51793
12.2701
3.43867
29.327
43.8569
58.5392
100.261
99.9587
24.3074
32.5433
52.3813
54.828
59.6081
39.8925
25.4201
24.1926
108.794
18.5723
102.763
6.77952
46.5372
8.38939
50.0405
138.284
127.226
135.388
125.332
71.3284
69.0052
70.5498
67.4192
103.558
80.4169
102.931
81.1399
56.4116
43.5956
55.9656
44.6583
54.7213
35.156
20.186
70.0107
-1.34986
4.17799
2.74988
31.8115
-4.9497
-1.2058
93.6778
95.6462
35.9005
55.4806
47.6474
50.8232
15.9127
30.0937
63.5051
51.8295
39.4769
-5.35521
2.98708
27.4092
1.32075
19.6877
1.14365
20.1083
9.0781
26.6511
39.4543
47.4058
41.7292
-1.29877
3.65826
0.139326
10.0999
-1.90079
12.6528
14.1936
37.4511
12.7075
25.1761
14.1729
18.7371
16.6524
20.4283
23.3201
27.7975
26.5889
30.1301
23.0245
26.6857
23.7979
26.6441
31.3638
34.0079
32.7065
34.5042
19.3411
26.3804
26.5161
31.96
25.5208
31.9579
34.5465
39.2574
43.617
232.075
235.883
235.972
238.74
241.127
244.052
245.634
247.473
238.4
239.775
240.244
240.822
245.458
245.628
247.882
247.295
35.7004
41.7944
38.5595
41.5824
49.9006
51.2521
240.187
239.707
240.649
239.807
244.832
243.274
245.947
244.041
55.9651
49.8381
42.1327
5.19841
14.4771
-3.48361
11.3386
4.27422
37.937
2.32947
18.5289
17.5518
20.8068
16.5843
19.6302
27.515
30.5696
25.8966
28.8968
23.5811
25.8675
22.134
24.1347
32.5812
33.8621
30.7673
31.8829
19.4198
25.8326
236.795
239.14
234.435
236.917
246.402
247.891
243.372
245.192
240.158
240.312
238.001
238.14
247.911
246.998
245.453
244.681
30.1986
33.3769
23.1356
26.9578
38.1448
40.975
29.3002
33.1904
46.5635
37.187
38.5281
29.6155
31.0798
239.845
238.831
237.678
236.722
245.444
243.428
243.264
241.41
54.3218
47.5803
45.2256
43.0196
34.7428
-2.82458
12.6444
14.8536
13.1024
4.4505
15.3278
25.8842
1.47549
6.25386
18.5164
20.1778
17.8573
-1.07059
-21.4627
-13.3805
-5.14224
-1.42516
0.403088
-8.91723
7.05204
2.38449
0.0243989
0.248253
-1.26167
-8.00101
-6.74692
-4.05194
-0.685575
2.28117
-0.393071
-0.14632
-1.28912
-9.81051
-3.537
-35.0953
-1.78158
-2.50129
-3.3651
-4.16951
-27.9599
-37.5064
-58.9269
-62.7503
-25.8384
-15.4098
-6.58586
0.343476
-10.5487
-0.121307
-4.03224
-10.0306
-63.3834
-12.8322
-59.1522
-7.28129
-6.45642
-7.32058
-7.98244
-83.5056
-80.9088
-84.1805
-82.6892
-6.02018
-4.75874
-6.39254
-3.48622
-68.2344
-53.2354
-68.6694
-51.9141
-16.3846
-3.26061
-3.70839
-0.166908
-2.20045
-15.0091
-7.15311
-32.1072
-2.89015
-25.4696
-8.42254
-8.36611
-12.8979
-5.32385
-64.4674
-67.4337
-40.5576
-40.928
-4.07456
0.954116
3.18268
9.87314
-55.7875
-40.6072
-31.7354
-20.3346
-0.814684
9.43494
-2.02671
-14.2183
-4.15007
-2.43652
-2.44478
-16.4542
-0.720646
1.06069
-6.79071
6.84191
15.2578
30.3177
-13.8839
-7.51161
20.3049
30.8279
25.3899
30.9603
28.9401
1.14471
28.9949
16.3073
37.6324
45.6884
44.1731
51.9597
42.4241
52.2944
50.1969
58.9228
6.08268
39.2903
22.1382
46.589
57.1261
53.5282
63.3612
48.4116
60.0544
53.3217
65.4075
31.1684
36.807
41.8047
45.7089
35.9948
40.7709
47.8622
51.0342
59.3663
248.962
251.036
253.908
254.898
255.367
256.799
260.529
260.975
279.655
40.011
43.7752
52.6147
55.0582
43.0503
45.7502
55.9373
57.6929
44.6922
43.6813
54.6966
52.5985
45.527
43.4711
56.4577
53.4657
260.023
260.98
265.069
265.275
263.038
263.671
267.747
267.935
292.713
60.2844
56.7286
248.441
245.858
250.218
247.316
251.157
247.662
253.578
249.802
66.7648
65.0115
57.4958
252.8
248.537
255.794
251.303
253.509
248.647
256.978
251.948
72.0063
60.6557
44.2143
22.1491
45.0103
52.8864
40.4273
48.5574
51.1051
59.7219
45.541
54.8269
5.70076
37.4744
16.5558
53.454
63.7106
47.2081
58.4247
53.01
65.2848
47.6418
59.9197
1.49509
45.946
254.61
255.308
251.049
252.218
261.089
261.341
257.102
257.931
281.588
45.3128
47.7034
35.135
38.823
51.0385
53.1701
40.0829
43.5277
64.5711
265.374
265.542
261.068
261.885
267.724
268.042
263.179
264.182
294.645
54.919
57.0501
43.6216
46.9584
56.9426
59.2349
45.5181
48.9107
75.5106
250.032
247.091
247.892
245.217
253.719
249.978
251.649
248.272
66.8898
62.5346
56.6981
256.23
251.85
254.257
250.329
257.671
252.829
255.794
251.482
73.7919
71.3331
63.2217
61.3988
43.0475
-4.01642
22.5236
35.604
-7.09845
8.15472
32.4862
42.6784
-0.862567
11.828
32.8131
31.9252
24.9806
-1.23096
-22.0045
-11.5665
-1.5613
2.00837
-0.142596
11.6322
11.959
1.0265
-2.80729
-2.03328
22.6574
-0.328704
-0.341197
-1.71925
20.5195
1.18669
0.617039
-12.0073
-27.4022
-25.8586
-18.081
-0.925349
-20.4625
-16.4137
-73.6776
-4.67296
-27.41
-17.6946
-83.8848
-50.632
-64.1769
-103.03
-106.167
-58.9455
-74.0693
-117.972
-122.249
-88.1448
-58.6026
-33.1484
-25.2409
-110.811
-25.6367
-109.707
-29.029
-126.7
-38.1679
-132.374
-141.508
-135.361
-143.587
-137.48
-161.021
-155.43
-164.43
-157.71
-114.25
-90.0477
-114.789
-88.8069
-133.524
-107.496
-134.112
-106.401
-72.3897
-36.001
-17.2399
-76.2437
-3.73604
-28.9411
-17.692
-93.4759
-6.10515
-26.4755
-109.683
-111.071
-59.6273
-66.941
-125.8
-127.151
-64.9288
-76.3879
-83.1888
-45.406
-18.7407
-1.80741
-3.45242
2.59679
8.53392
-0.636772
-0.626977
-4.45599
1.78489
-15.8462
-18.4961
23.3035
28.3754
-16.3534
-23.6736
19.6455
23.0801
-15.151
-9.58442
27.6429
25.1874
-23.4375
-19.2864
20.5656
17.1759
8.51572
11.43
9.07395
46.8356
13.5847
48.8051
61.2848
52.301
65.7791
49.792
61.0362
52.2919
64.8975
8.79409
40.1365
17.5377
48.2204
58.658
50.6175
62.2518
42.6202
53.9472
46.3356
57.5897
44.7042
46.5403
57.5947
58.8119
44.6819
46.0392
57.4241
58.3421
45.4091
42.5259
56.9304
53.2774
44.3467
40.9295
56.1022
52.0727
264.325
264.734
268.616
268.856
263.908
264.195
267.818
268.111
294.408
42.9227
44.244
55.3096
56.2617
39.6832
41.2771
51.3517
52.634
42.3858
38.7635
54.0001
49.9089
39.5977
36.0884
50.6694
46.8316
261.676
262.041
265.28
265.704
257.532
258.208
260.85
261.546
284.674
63.3234
53.7209
253.247
247.977
257.061
251.69
252.063
246.592
256.072
250.567
70.8156
55.7073
46.3153
250.066
244.61
254.111
248.688
247.178
241.962
251.093
245.975
63.5479
53.114
35.9964
15.2999
51.8063
65.1706
47.1526
59.7564
50.2893
63.668
44.8751
57.949
7.72172
45.4256
12.1419
48.0039
60.6349
41.6343
54.521
44.8218
55.9374
37.6266
49.5027
4.27277
35.0085
268.259
268.788
263.511
264.755
267.109
267.831
262.147
263.652
295.71
57.1743
59.6821
45.7377
49.281
55.639
58.4096
44.3084
48.0711
75.9394
264.296
265.231
259.136
260.941
259.666
260.884
254.399
256.567
285.036
52.3727
55.4808
41.3122
45.3661
47.4694
50.9845
36.9294
41.3071
65.8449
257.94
252.829
256.152
251.638
257.065
251.885
255.347
250.818
73.7189
71.8357
63.4475
255.137
250.092
253.467
249.11
252.071
247.371
250.442
246.444
66.7843
63.9695
57.3887
59.2989
39.9288
-2.24935
33.0332
42.7885
0.0621471
11.7531
24.024
35.0817
-9.02565
6.02806
30.6837
31.1447
23.998
-1.07396
-13.7832
-8.5707
-0.828444
2.00747
0.506868
2.70063
3.63892
-0.514139
-1.96487
1.62116
6.36158
-20.4156
-25.2901
-19.1908
-6.27166
-19.9272
-14.2693
-67.0688
-1.02939
4.19692
-3.6801
-35.4852
-45.8261
-63.7858
-99.271
-108.423
-18.3089
-39.7088
-60.5331
-74.1879
-75.3781
-58.6148
-37.1007
-26.601
-99.7924
-18.0355
-99.4535
-6.30427
-57.8001
-10.0201
-53.6539
-137.048
-139.043
-139.699
-141.073
-88.3735
-97.7818
-89.4422
-99.0558
-111.809
-74.1235
-42.587
-12.652
-76.1902
-1.57267
-24.693
-3.55796
-42.9862
0.684644
-12.8959
-107.22
-113.13
-54.4353
-67.1952
-66.6586
-77.5862
-29.2397
-43.4239
-74.6495
-50.4464
-27.5671
-1.11188
1.20446
1.43931
0.499287
-1.28557
12.5323
-0.644835
-6.60868
-12.7598
-21.2387
13.7058
16.9211
-1.45289
-11.6478
8.35215
11.968
-4.43589
-3.67073
0.0347019
4.05854
26.3693
12.3801
50.6725
5.2609
6.34907
4.86048
21.5311
35.3849
37.3427
45.8965
47.6365
30.1555
32.5727
39.1066
41.4159
47.831
251.779
252.932
254.733
255.865
244.258
246.044
246.688
248.466
251.365
247.957
254.484
251.361
245.331
242.788
247.957
245.733
22.4694
30.4634
35.9669
38.8843
37.8509
40.7567
25.832
29.8277
27.0846
31.05
39.4308
38.1156
41.4958
40.4887
31.5778
31.4553
32.9893
33.1888
43.8886
36.6845
243.623
238.863
247.262
242.658
239.269
235.163
242.495
238.6
51.6693
30.383
26.4018
41.4944
37.4279
32.9134
22.544
14.7397
44.8153
-0.845116
18.4984
2.11491
18.514
-2.99492
9.88631
253.379
255.038
248.134
250.797
245.223
247.525
240.29
243.551
254.233
251.7
250.919
249.262
247.562
245.905
244.431
243.573
41.1622
45.1432
31.443
36.1437
33.8218
38.25
25.2598
30.204
46.512
46.0199
38.5855
39.2505
40.2488
40.4559
33.0828
34.2768
36.4521
39.7703
32.2001
36.2371
26.0295
30.1363
22.9855
27.3326
40.9628
40.4557
38.095
38.2584
32.3777
32.9841
29.9552
31.0409
20.1558
28.7613
248.127
243.965
246.528
243.059
243.188
239.742
241.64
238.849
54.4804
49.8805
46.4783
41.9765
39.3011
33.1461
33.1177
38.6348
27.3359
-0.499266
11.3893
23.0536
-17.006
-1.1424
1.52512
11.5843
-19.4256
-5.41117
12.0537
18.5663
15.5202
0.724721
-29.6317
-12.9921
-4.52606
-1.62107
0.0546719
7.88557
1.15153
4.31587
4.70367
1.11428
3.4059
-3.25622
-9.1077
-7.89265
1.18226
7.31399
-22.915
-28.1843
-21.2578
0.244087
-36.2807
-49.0393
-36.0691
-49.1375
9.37974
-8.86122
8.84741
-7.74016
-38.6211
-37.4928
-26.3169
0.0747303
5.0436
-24.0976
-25.7519
-18.0914
-0.431086
4.45571
-0.441891
-3.25787
-2.23238
-0.000618144
8.22432
15.4456
6.72634
17.8057
10.2138
6.27433
-9.91215
0.814776
11.8598
12.8509
10.2982
0.110613
4.58872
15.8942
4.80639
11.4925
-20.6613
-2.75737
-9.04112
-0.623611
9.67788
14.5329
12.373
-1.31705
1.02808
1.36145
4.45286
4.63232
-0.177061
0.371703
-8.86447
-8.24041
-6.49167
-0.105939
-1.86569
13.0113
16.8685
15.2264
-0.0713155
6.34037
11.4935
10.0639
7.72897
0.262261
7.56991
6.30185
1.52336
-0.381052
-0.229986
15.6415
6.97237
-2.15514
-4.46617
-0.0999183
6.20884
9.13312
-0.128452
-3.07124
-0.0998152
-0.914726
3.83196
1.73715
0.656553
0.641348
-10.2907
-6.25363
0.769279
2.73609
-0.032844
-12.184
-7.146
-1.33984
1.16457
-1.19614
5.67556
-5.2625
-5.69207
-4.02312
-0.252604
-10.3458
-11.1333
-11.6038
-10.3916
SCALARS m0 double 1
LOOKUP_TABLE table1
0
0
0
0
0
0
0
0
0
0
0
0
0
0
0
0
0
0
0
0
0
0
0
0
0
0
0
0
0
0
0
0
0
0
0
0
0
0
0
0
0
0
0
0
0
0
0
0
0
0
0
0
0
0
0
0
0
0
0
0
0
0
0
0
0
0
0
0
0
0
0
0
0
0
0
0
0
0
0
0
0
0
0
0
0
0
0
0
0
0
0
0
0
0
0
0
0
0
0
0
0
0
0
0
0
0
0
0
0
0
0
0
0
0
0
0
0
0
0
0
0
0
0
0
0
0
0
0
0
0
0
0
0
0
0
0
0
0
0
0
0
0
0
0
0
0
0
0
0
0
0
0
0
0
0
0
0
0
0
0
0
0
0
0
0
0
0
0
0
0
0
0
0
0
0
0
0
0
0
0
0
0
0
0
0
0
0
0
0
0
0
0
0
0
0
0
0
0
0
0
0
0
0
0
0
0
0
0
0
0
0
0
0
0
0
0
0
0
0
0
0
0
0
0
0
0
0
0
0
0
0
0
0
0
0
0
0
0
0
0
0
0
0
0
0
0
0
0
0
0
0
0
0
0
0
0
0
0
0
0
0
0
0
0
0
0
0
0
0
0
0
0
0
0
0
0
0
0
0
0
0
0
0
0
0
0
0
0
0
0
0
0
0
0
0
0
0
0
0
0
0
0
0
0
0
0
0
0
0
0
0
0
0
0
0
0
0
0
0
0
0
0
0
0
0
0
0
0
0
0
0
0
0
0
0
0
0
0
0
0
0
0
0
0
0
0
0
0
0
0
0
0
0
0
0
0
0
0
0
0
0
0
0
0
0
0
0
0
0
0
0
0
0
0
0
0
0
0
0
0
0
0
0
0
200
200
200
200
200
200
200
200
200
200
200
200
200
200
200
200
0
0
0
0
0
0
200
200
200
200
200
200
200
200
0
0
0
0
0
0
0
0
0
0
0
0
0
0
0
0
0
0
0
0
0
0
0
0
0
0
0
0
0
200
200
200
200
200
200
200
200
200
200
200
200
200
200
200
200
0
0
0
0
0
0
0
0
0
0
0
0
0
200
200
200
200
200
200
200
200
0
0
0
0
0
0
0
0
0
0
0
0
0
0
0
0
0
0
0
0
0
0
0
0
0
0
0
0
0
0
0
0
0
0
0
0
0
0
0
0
0
0
0
0
0
0
0
0
0
0
0
0
0
0
0
0
0
0
0
0
0
0
0
0
0
0
0
0
0
0
0
0
0
0
0
0
0
0
0
0
0
0
0
0
0
0
0
0
0
0
0
0
0
0
0
0
0
0
0
0
0
0
0
0
0
0
0
0
0
0
0
0
0
0
0
0
0
0
0
0
0
0
0
0
0
0
0
0
0
0
0
0
0
0
0
0
0
0
0
0
0
0
0
0
0
0
0
0
0
0
0
0
0
200
200
200
200
200
200
200
200
200
0
0
0
0
0
0
0
0
0
0
0
0
0
0
0
0
200
200
200
200
200
200
200
200
200
0
0
200
200
200
200
200
200
200
200
0
0
0
200
200
200
200
200
200
200
200
0
0
0
0
0
0
0
0
0
0
0
0
0
0
0
0
0
0
0
0
0
0
0
0
0
200
200
200
200
200
200
200
200
200
0
0
0
0
0
0
0
0
0
200
200
200
200
200
200
200
200
200
0
0
0
0
0
0
0
0
0
200
200
200
200
200
200
200
200
0
0
0
200
200
200
200
200
200
200
200
0
0
0
0
0
0
0
0
0
0
0
0
0
0
0
0
0
0
0
0
0
0
0
0
0
0
0
0
0
0
0
0
0
0
0
0
0
0
0
0
0
0
0
0
0
0
0
0
0
0
0
0
0
0
0
0
0
0
0
0
0
0
0
0
0
0
0
0
0
0
0
0
0
0
0
0
0
0
0
0
0
0
0
0
0
0
0
0
0
0
0
0
0
0
0
0
0
0
0
0
0
0
0
0
0
0
0
0
0
0
0
0
0
0
0
0
0
0
0
0
0
0
0
0
0
0
0
0
0
0
0
0
0
0
0
0
0
0
0
0
0
0
0
0
0
0
0
0
0
0
0
0
0
0
0
0
0
0
0
0
0
0
0
0
0
0
0
200
200
200
200
200
200
200
200
200
0
0
0
0
0
0
0
0
0
0
0
0
0
0
0
0
200
200
200
200
200
200
200
200
200
0
0
200
200
200
200
200
200
200
200
0
0
0
200
200
200
200
200
200
200
200
0
0
0
0
0
0
0
0
0
0
0
0
0
0
0
0
0
0
0
0
0
0
0
0
0
200
200
200
200
200
200
200
200
200
0
0
0
0
0
0
0
0
0
200
200
200
200
200
200
200
200
200
0
0
0
0
0
0
0
0
0
200
200
200
200
200
200
200
200
0
0
0
200
200
200
200
200
200
200
200
0
0
0
0
0
0
0
0
0
0
0
0
0
0
0
0
0
0
0
0
0
0
0
0
0
0
0
0
0
0
0
0
0
0
0
0
0
0
0
0
0
0
0
0
0
0
0
0
0
0
0
0
0
0
0
0
0
0
0
0
0
0
0
0
0
0
0
0
0
0
0
0
0
0
0
0
0
0
0
0
0
0
0
0
0
0
0
0
0
0
0
0
0
0
0
0
0
0
0
0
0
0
0
0
0
0
0
0
0
0
0
0
0
0
0
0
0
0
0
0
0
0
0
0
0
200
200
200
200
200
200
200
200
200
200
200
200
200
200
200
200
0
0
0
0
0
0
0
0
0
0
0
0
0
0
0
0
0
0
0
0
200
200
200
200
200
200
200
200
0
0
0
0
0
0
0
0
0
0
0
0
0
0
0
200
200
200
200
200
200
200
200
200
200
200
200
200
200
200
200
0
0
0
0
0
0
0
0
0
0
0
0
0
0
0
0
0
0
0
0
0
0
0
0
0
0
0
0
0
0
0
0
0
0
200
200
200
200
200
200
200
200
0
0
0
0
0
0
0
0
0
0
0
0
0
0
0
0
0
0
0
0
0
0
0
0
0
0
0
0
0
0
0
0
0
0
0
0
0
0
0
0
0
0
0
0
0
0
0
0
0
0
0
0
0
0
0
0
0
0
0
0
0
0
0
0
0
0
0
0
0
0
0
0
0
0
0
0
0
0
0
0
0
0
0
0
0
0
0
0
0
0
0
0
0
0
0
0
0
0
0
0
0
0
0
0
0
0
0
0
0
0
0
0
0
0
0
0
0
0
0
0
0
0
0
0
0
0
0
0
0
0
0
0
0
0
0
0
0
0
0
0
0
0
0
0
0
0
0
SCALARS m0s double 1
LOOKUP_TABLE table2
0
0
0
0
0
0
0
0
0
0
0
0
0
0
0
0
0
0
0
0
0
0
0
0
0
0
0
0
0
0
0
0
0
0
0
0
0
0
0
0
0
0
0
0
0
0
0
0
0
0
0
0
0
0
0
0
0
0
0
0
0
0
0
0
0
0
0
0
0
0
0
0
0
0
0
0
0
0
0
0
0
0
0
0
0
0
0
0
0
0
0
0
0
0
0
0
0
0
0
0
0
0
0
0
0
0
0
0
0
0
0
0
0
0
0
0
0
0
0
0
0
0
0
0
0
0
0
0
0
0
0
0
0
0
0
0
0
0
0
0
0
0
0
0
0
0
0
0
0
0
0
0
0
0
0
0
0
0
0
0
0
0
0
0
0
0
0
0
0
0
0
0
0
0
0
0
0
0
0
0
0
0
0
0
0
0
0
0
0
0
0
0
0
0
0
0
0
0
0
0
0
0
0
0
0
0
0
0
0
0
0
0
0
0
0
0
0
0
0
0
0
0
0
0
0
0
0
0
0
0
0
0
0
0
0
0
0
0
0
0
0
0
0
0
0
0
0
0
0
0
0
0
0
0
0
0
0
0
0
0
0
0
0
0
0
0
0
0
0
0
0
0
0
0
0
0
0
0
0
0
0
0
0
0
0
0
0
0
0
0
0
0
0
0
0
0
0
0
0
0
0
0
0
0
0
0
0
0
0
0
0
0
0
0
0
0
0
0
0
0
0
0
0
0
0
0
0
0
0
0
0
0
0
0
0
0
0
0
0
0
0
0
0
0
0
0
0
0
0
0
0
0
0
0
0
0
0
0
0
0
0
0
0
0
0
0
0
0
0
0
0
0
0
0
0
0
0
0
0
0
0
0
0
0
0
0
0
0
0
0
0
0
0
0
0
0
0
0
0
0
0
0
0
0
0
0
0
0
0
0
0
0
0
0
0
0
0
0
0
0
0
0
0
0
0
0
0
0
0
0
0
0
0
0
0
0
0
0
0
0
0
0
0
0
0
0
0
0
0
0
0
0
0
0
0
0
0
0
0
0
0
0
0
0
0
0
0
0
0
0
0
0
0
0
0
0
0
0
0
0
0
0
0
0
0
0
0
0
0
0
0
0
0
0
0
0
0
0
0
0
0
0
0
0
0
0
0
0
0
0
0
0
0
0
0
0
0
0
0
0
0
0
0
0
0
0
0
0
0
0
0
0
0
0
0
0
0
0
0
0
0
0
0
0
0
0
0
0
0
0
0
0
0
0
0
0
0
0
0
0
0
0
0
0
0
0
0
0
0
0
0
0
0
0
0
0
0
0
0
0
0
0
0
0
0
0
0
0
0
0
0
0
0
0
0
0
0
0
0
0
0
0
0
0
0
0
0
0
0
0
0
0
0
0
0
0
0
0
0
0
0
0
0
0
0
0
0
0
0
0
0
0
0
0
0
0
0
0
0
0
0
0
0
0
0
0
0
0
0
0
0
0
0
0
0
0
0
0
0
0
0
0
0
0
0
0
0
0
0
0
0
0
0
0
0
0
0
0
0
0
0
0
0
0
0
0
0
0
0
0
0
0
0
0
0
0
0
0
0
0
0
0
0
0
0
0
0
0
0
0
0
0
0
0
0
0
0
0
0
0
0
0
0
0
0
0
0
0
0
0
0
0
0
0
0
0
0
0
0
0
0
0
0
0
0
0
0
0
0
0
0
0
0
0
0
0
0
0
0
0
0
0
0
0
0
0
0
0
0
0
0
0
0
0
0
0
0
0
0
0
0
0
0
0
0
0
0
0
0
0
0
0
0
0
0
0
0
0
0
0
0
0
0
0
0
0
0
0
0
0
0
0
0
0
0
0
0
0
0
0
0
0
0
0
0
0
0
0
0
0
0
0
0
0
0
0
0
0
0
0
0
0
0
0
0
0
0
0
0
0
0
0
0
0
0
0
0
0
0
0
0
0
0
0
0
0
0
0
0
0
0
0
0
0
0
0
0
0
0
0
0
0
0
0
0
0
0
0
0
0
0
0
0
0
0
0
0
0
0
0
0
0
0
0
0
0
0
0
0
0
0
0
0
0
0
0
0
0
0
0
0
0
0
0
0
0
0
0
0
0
0
0
0
0
0
0
0
0
0
0
0
0
0
0
0
0
0
0
0
0
0
0
0
0
0
0
0
0
0
0
0
0
0
0
0
0
0
0
0
0
0
0
0
0
0
0
0
0
0
0
0
0
0
0
0
0
0
0
0
0
0
0
0
0
0
0
0
0
0
0
0
0
0
0
0
0
0
0
0
0
0
0
0
0
0
0
0
0
0
0
0
0
0
0
0
0
0
0
0
0
0
0
0
0
0
0
0
0
0
0
0
0
0
0
0
0
0
0
0
0
0
0
0
0
0
0
0
0
0
0
0
0
0
0
0
0
0
0
0
0
0
0
0
0
0
0
0
0
0
0
0
0
0
0
0
0
0
0
0
0
0
0
0
0
0
0
0
0
0
0
0
0
0
0
0
0
0
0
0
0
0
0
0
0
0
0
0
0
0
0
0
0
0
0
0
0
0
0
0
0
0
0
0
0
0
0
0
0
0
0
0
0
0
0
0
0
0
0
0
0
0
0
0
0
0
0
0
0
0
0
0
0
0
0
0
0
0
0
0
0
0
0
0
0
0
0
0
0
0
0
0
0
0
0
0
0
0
0
0
0
0
0
0
0
0
0
0
0
0
0
0
0
0
0
0
0
0
0
0
0
0
0
0
0
0
0
0
0
0
0
0
0
0
0
0
0
0
0
0
0
0
0
0
0
0
0
0
0
0
0
0
0
0
0
0
0
0
0
0
0
0
0
0
0
0
0
0
0
0
0
0
0
0
0
0
0
0
0
0
0
0
0
0
0
0
0
0
0
0
0
0
0
0
0
0
0
0
0
0
0
0
0
0
0
0
0
0
0
0
0
0
0
0
0
0
0
0
0
0
0
0
0
0
0
0
0
0
0
0
0
0
0
0
0
0
0
0
0
0
0
0
0
0
0
0
0
0
0
0
0
0
0
0
0
0
0
0
0
0
0
0
0
0
0
0
0
0
0
0
0
0
0
0
0
0
0
0
0
0
0
0
0
0
0
0
0
0
0
0
0
0
0
0
0
0
0
0
0
0
0
0
0
0
0
0
0
0
0
0
0
0
0
0
0
0
0
0
0
0
0
0
0
0
0
0
0
0
0
0
0
0
0
0
0
0
0
0
0
0
0
0
0
0
0
0
0
0
0
0
0
0
0
0
0
0
0
0
0
0
0
0
0
0
0
0
0
0
0
0

POINT_DATA	1459
SCALARS model double 1
LOOKUP_TABLE table0
0.364439
-1.35029
-11.6417
-17.1502
-17.4944
0.476616
-0.154696
-9.09185
-13.1944
-12.8698
0.682047
-3.44125
-13.5001
-11.9877
-9.0988
0.905716
-9.66984
-18.4987
-12.8443
-7.69248
0.0902058
-3.58575
-18.3477
-14.3508
-8.66796
-0.162528
-0.387762
-14.9223
-14.6623
-10.4256
-0.0855047
-2.34203
-10.125
-12.6201
-11.4366
-0.034024
-0.99004
-3.37454
-9.45335
-12.0938
0.0101742
3.18228
0.383857
-9.73747
-14.3598
0.121452
2.62749
-12.4653
-17.1731
-18.9456
-0.0131073
-1.14235
-9.30549
-11.897
-10.5353
0.465086
-6.80411
-5.13062
-1.28522
-0.175845
0.781035
-17.3001
0.581892
10.1746
10.2042
0.991649
-15.8523
6.64781
15.938
15.3767
0.0114658
-14.5406
0.103881
10.4738
12.8008
0.11449
-13.3561
-8.60786
0.720258
5.93929
-0.519851
-1.76776
-8.37902
-4.67302
-0.322814
-0.91688
1.01528
-5.32264
-6.10048
-4.94483
-0.022427
-5.31946
-4.21446
-7.96581
-9.59616
-0.0754497
3.26672
-6.35482
-12.5136
-14.9471
-0.198611
-1.69743
-11.6871
-7.02599
-3.26433
-0.599038
-9.6308
6.28934
14.5469
13.2772
3.98383
5.83682
42.6071
42.3172
31.2098
7.69698
8.55901
37.1016
4.49147
35.7734
99.7201
94.1409
96.9718
92.8552
71.7361
57.6869
40.8747
1.11178
9.43594
43.021
45.407
36.9482
-2.83466
-24.2571
4.54047
22.2128
25.3358
-1.44984
-22.0056
-8.075
7.64854
14.3464
-0.775832
-10.6842
-6.8629
1.19689
5.65854
-0.663666
4.79102
-4.33432
-3.9045
-2.63225
0.0665868
-7.72029
-5.40677
-9.48917
-10.6248
0.522295
-19.0413
-14.166