# vtk DataFile Version 3.0
Gravity inversion using rectangular prisms
ASCII
DATASET UNSTRUCTURED_GRID

POINTS	1200	double
100	100	100
100	100	300
100	100	500
100	100	700
100	100	900
100	300	100
100	300	300
100	300	500
100	300	700
100	300	900
100	500	100
100	500	300
100	500	500
100	500	700
100	500	900
100	700	100
100	700	300
100	700	500
100	700	700
100	700	900
100	900	100
100	900	300
100	900	500
100	900	700
100	900	900
100	1100	100
100	1100	300
100	1100	500
100	1100	700
100	1100	900
100	1300	100
100	1300	300
100	1300	500
100	1300	700
100	1300	900
100	1500	100
100	1500	300
100	1500	500
100	1500	700
100	1500	900
100	1700	100
100	1700	300
100	1700	500
100	1700	700
100	1700	900
100	1900	100
100	1900	300
100	1900	500
100	1900	700
100	1900	900
300	100	100
300	100	300
300	100	500
300	100	700
300	100	900
300	300	100
300	300	300
300	300	500
300	300	700
300	300	900
300	500	100
300	500	300
300	500	500
300	500	700
300	500	900
300	700	100
250	650	250
250	650	350
250	750	250
250	750	350
350	650	250
350	650	350
350	750	250
350	750	350
300	700	500
300	700	700
300	700	900
300	900	100
300	900	300
300	900	500
300	900	700
300	900	900
300	1100	100
300	1100	300
300	1100	500
300	1100	700
300	1100	900
300	1300	100
300	1300	300
300	1300	500
300	1300	700
300	1300	900
300	1500	100
300	1500	300
300	1500	500
300	1500	700
300	1500	900
300	1700	100
300	1700	300
300	1700	500
300	1700	700
300	1700	900
300	1900	100
300	1900	300
300	1900	500
300	1900	700
300	1900	900
500	100	100
500	100	300
500	100	500
500	100	700
500	100	900
500	300	100
500	300	300
500	300	500
500	300	700
500	300	900
500	500	100
450	450	250
450	450	350
450	550	250
450	550	350
550	450	250
550	450	350
550	550	250
550	550	350
500	500	500
500	500	700
500	500	900
450	650	50
450	650	150
450	750	50
450	750	150
550	650	50
550	650	150
550	750	50
550	750	150
450	650	250
450	650	350
450	750	250
450	750	350
550	650	250
550	650	350
550	750	250
550	750	350
500	700	500
500	700	700
500	700	900
500	900	100
450	850	250
450	850	350
450	950	250
450	950	350
550	850	250
550	850	350
550	950	250
550	950	350
500	900	500
500	900	700
500	900	900
500	1100	100
500	1100	300
500	1100	500
500	1100	700
500	1100	900
500	1300	100
500	1300	300
500	1300	500
500	1300	700
500	1300	900
500	1500	100
500	1500	300
500	1500	500
500	1500	700
500	1500	900
500	1700	100
500	1700	300
500	1700	500
500	1700	700
500	1700	900
500	1900	100
500	1900	300
500	1900	500
500	1900	700
500	1900	900
700	100	100
700	100	300
700	100	500
700	100	700
700	100	900
700	300	100
650	250	250
650	250	350
650	350	250
650	350	350
750	250	250
750	250	350
750	350	250
750	350	350
700	300	500
700	300	700
700	300	900
650	450	50
650	450	150
650	550	50
650	550	150
750	450	50
750	450	150
750	550	50
750	550	150
650	450	250
650	450	350
650	550	250
650	550	350
750	450	250
750	450	350
750	550	250
750	550	350
650	450	450
650	450	550
650	550	450
650	550	550
750	450	450
750	450	550
750	550	450
750	550	550
700	500	700
700	500	900
650	650	50
650	650	150
650	750	50
650	750	150
750	650	50
750	650	150
750	750	50
750	750	150
650	650	250
650	650	350
650	750	250
650	750	350
750	650	250
750	650	350
750	750	250
750	750	350
650	650	450
650	650	550
650	750	450
650	750	550
750	650	450
750	650	550
750	750	450
750	750	550
700	700	700
700	700	900
650	850	50
650	850	150
650	950	50
650	950	150
750	850	50
750	850	150
750	950	50
750	950	150
650	850	250
650	850	350
650	950	250
650	950	350
750	850	250
750	850	350
750	950	250
750	950	350
700	900	500
700	900	700
700	900	900
700	1100	100
650	1050	250
650	1050	350
650	1150	250
650	1150	350
750	1050	250
750	1050	350
750	1150	250
750	1150	350
700	1100	500
700	1100	700
700	1100	900
700	1300	100
650	1250	250
650	1250	350
650	1350	250
650	1350	350
750	1250	250
750	1250	350
750	1350	250
750	1350	350
700	1300	500
700	1300	700
700	1300	900
700	1500	100
650	1450	250
650	1450	350
650	1550	250
650	1550	350
750	1450	250
750	1450	350
750	1550	250
750	1550	350
700	1500	500
700	1500	700
700	1500	900
700	1700	100
700	1700	300
700	1700	500
700	1700	700
700	1700	900
700	1900	100
700	1900	300
700	1900	500
700	1900	700
700	1900	900
900	100	100
900	100	300
900	100	500
900	100	700
900	100	900
900	300	100
850	250	250
850	250	350
850	350	250
850	350	350
950	250	250
950	250	350
950	350	250
950	350	350
900	300	500
900	300	700
900	300	900
850	450	50
850	450	150
850	550	50
850	550	150
950	450	50
950	450	150
950	550	50
950	550	150
850	450	250
850	450	350
850	550	250
850	550	350
950	450	250
950	450	350
950	550	250
950	550	350
850	450	450
850	450	550
850	550	450
850	550	550
950	450	450
950	450	550
950	550	450
950	550	550
900	500	700
900	500	900
850	650	50
850	650	150
850	750	50
850	750	150
950	650	50
950	650	150
950	750	50
950	750	150
850	650	250
850	650	350
850	750	250
850	750	350
950	650	250
950	650	350
950	750	250
950	750	350
850	650	450
850	650	550
850	750	450
850	750	550
950	650	450
950	650	550
950	750	450
950	750	550
900	700	700
900	700	900
850	850	50
850	850	150
850	950	50
850	950	150
950	850	50
950	850	150
950	950	50
950	950	150
850	850	250
850	850	350
850	950	250
850	950	350
950	850	250
950	850	350
950	950	250
950	950	350
850	850	450
850	850	550
850	950	450
850	950	550
950	850	450
950	850	550
950	950	450
950	950	550
900	900	700
900	900	900
900	1100	100
850	1050	250
850	1050	350
850	1150	250
850	1150	350
950	1050	250
950	1050	350
950	1150	250
950	1150	350
900	1100	500
900	1100	700
900	1100	900
850	1250	50
850	1250	150
850	1350	50
850	1350	150
950	1250	50
950	1250	150
950	1350	50
950	1350	150
850	1250	250
850	1250	350
850	1350	250
850	1350	350
950	1250	250
950	1250	350
950	1350	250
950	1350	350
850	1250	450
850	1250	550
850	1350	450
850	1350	550
950	1250	450
950	1250	550
950	1350	450
950	1350	550
900	1300	700
900	1300	900
850	1450	50
850	1450	150
850	1550	50
850	1550	150
950	1450	50
950	1450	150
950	1550	50
950	1550	150
850	1450	250
850	1450	350
850	1550	250
850	1550	350
950	1450	250
950	1450	350
950	1550	250
950	1550	350
850	1450	450
850	1450	550
850	1550	450
850	1550	550
950	1450	450
950	1450	550
950	1550	450
950	1550	550
900	1500	700
900	1500	900
900	1700	100
850	1650	250
850	1650	350
850	1750	250
850	1750	350
950	1650	250
950	1650	350
950	1750	250
950	1750	350
900	1700	500
900	1700	700
900	1700	900
900	1900	100
900	1900	300
900	1900	500
900	1900	700
900	1900	900
1100	100	100
1100	100	300
1100	100	500
1100	100	700
1100	100	900
1100	300	100
1100	300	300
1100	300	500
1100	300	700
1100	300	900
1100	500	100
1050	450	250
1050	450	350
1050	550	250
1050	550	350
1150	450	250
1150	450	350
1150	550	250
1150	550	350
1050	450	450
1050	450	550
1050	550	450
1050	550	550
1150	450	450
1150	450	550
1150	550	450
1150	550	550
1100	500	700
1100	500	900
1050	650	50
1050	650	150
1050	750	50
1050	750	150
1150	650	50
1150	650	150
1150	750	50
1150	750	150
1050	650	250
1050	650	350
1050	750	250
1050	750	350
1150	650	250
1150	650	350
1150	750	250
1150	750	350
1050	650	450
1050	650	550
1050	750	450
1050	750	550
1150	650	450
1150	650	550
1150	750	450
1150	750	550
1100	700	700
1100	700	900
1100	900	100
1050	850	250
1050	850	350
1050	950	250
1050	950	350
1150	850	250
1150	850	350
1150	950	250
1150	950	350
1050	850	450
1050	850	550
1050	950	450
1050	950	550
1150	850	450
1150	850	550
1150	950	450
1150	950	550
1100	900	700
1100	900	900
1050	1050	50
1050	1050	150
1050	1150	50
1050	1150	150
1150	1050	50
1150	1050	150
1150	1150	50
1150	1150	150
1050	1050	250
1050	1050	350
1050	1150	250
1050	1150	350
1150	1050	250
1150	1050	350
1150	1150	250
1150	1150	350
1050	1050	450
1050	1050	550
1050	1150	450
1050	1150	550
1150	1050	450
1150	1050	550
1150	1150	450
1150	1150	550
1100	1100	700
1100	1100	900
1050	1250	50
1050	1250	150
1050	1350	50
1050	1350	150
1150	1250	50
1150	1250	150
1150	1350	50
1150	1350	150
1050	1250	250
1050	1250	350
1050	1350	250
1050	1350	350
1150	1250	250
1150	1250	350
1150	1350	250
1150	1350	350
1050	1250	450
1050	1250	550
1050	1350	450
1050	1350	550
1150	1250	450
1150	1250	550
1150	1350	450
1150	1350	550
1050	1250	650
1050	1250	750
1050	1350	650
1050	1350	750
1150	1250	650
1150	1250	750
1150	1350	650
1150	1350	750
1100	1300	900
1050	1450	50
1050	1450	150
1050	1550	50
1050	1550	150
1150	1450	50
1150	1450	150
1150	1550	50
1150	1550	150
1050	1450	250
1050	1450	350
1050	1550	250
1050	1550	350
1150	1450	250
1150	1450	350
1150	1550	250
1150	1550	350
1050	1450	450
1050	1450	550
1050	1550	450
1050	1550	550
1150	1450	450
1150	1450	550
1150	1550	450
1150	1550	550
1050	1450	650
1050	1450	750
1050	1550	650
1050	1550	750
1150	1450	650
1150	1450	750
1150	1550	650
1150	1550	750
1100	1500	900
1100	1700	100
1050	1650	250
1050	1650	350
1050	1750	250
1050	1750	350
1150	1650	250
1150	1650	350
1150	1750	250
1150	1750	350
1050	1650	450
1050	1650	550
1050	1750	450
1050	1750	550
1150	1650	450
1150	1650	550
1150	1750	450
1150	1750	550
1100	1700	700
1100	1700	900
1100	1900	100
1100	1900	300
1100	1900	500
1100	1900	700
1100	1900	900
1300	100	100
1300	100	300
1300	100	500
1300	100	700
1300	100	900
1300	300	100
1250	250	250
1250	250	350
1250	350	250
1250	350	350
1350	250	250
1350	250	350
1350	350	250
1350	350	350
1300	300	500
1300	300	700
1300	300	900
1250	450	50
1250	450	150
1250	550	50
1250	550	150
1350	450	50
1350	450	150
1350	550	50
1350	550	150
1250	450	250
1250	450	350
1250	550	250
1250	550	350
1350	450	250
1350	450	350
1350	550	250
1350	550	350
1250	450	450
1250	450	550
1250	550	450
1250	550	550
1350	450	450
1350	450	550
1350	550	450
1350	550	550
1300	500	700
1300	500	900
1250	650	50
1250	650	150
1250	750	50
1250	750	150
1350	650	50
1350	650	150
1350	750	50
1350	750	150
1250	650	250
1250	650	350
1250	750	250
1250	750	350
1350	650	250
1350	650	350
1350	750	250
1350	750	350
1250	650	450
1250	650	550
1250	750	450
1250	750	550
1350	650	450
1350	650	550
1350	750	450
1350	750	550
1300	700	700
1300	700	900
1250	850	50
1250	850	150
1250	950	50
1250	950	150
1350	850	50
1350	850	150
1350	950	50
1350	950	150
1250	850	250
1250	850	350
1250	950	250
1250	950	350
1350	850	250
1350	850	350
1350	950	250
1350	950	350
1250	850	450
1250	850	550
1250	950	450
1250	950	550
1350	850	450
1350	850	550
1350	950	450
1350	950	550
[...]
CELL_DATA	1200
SCALARS model double 1
LOOKUP_TABLE table0
0.650233
-9.16257
-14.3084
-15.9004
-11.985
-0.065331
-2.12135
-11.2298
-11.5632
-7.89551
-0.803678
-10.3359
-12.2998
-8.30057
-4.04178
-1.04728
-13.2785
-13.9112
-7.3775
-2.2535
-0.824415
-11.6205
-14.6527
-8.97924
-3.0788
0.0311576
-9.10851
-14.5677
-11.1545
-5.2461
0.294234
-6.55133
-12.0908
-11.4486
-7.04885
0.0561949
-4.58497
-7.48676
-9.97319
-8.12721
-0.205332
2.38574
-4.091
-9.32726
-9.36166
0.24457
-1.12721
-6.72368
-11.3915
-11.211
-0.2796
-2.5574
-10.1433
-9.36237
-5.87291
-1.03039
-8.19808
-1.9271
2.37056
3.02152
-2.70385
-9.62653
7.67164
15.0206
12.0312
-2.95592
-7.72637
-0.391564
-4.48612
0.195897
-5.0276
9.53715
-6.22319
9.08609
13.9157
21.0571
16.551
-2.85003
-8.87984
5.81162
15.3058
14.3543
-1.15137
-14.7198
-5.58951
4.47697
8.23489
-0.95336
-4.88667
-8.2705
-2.53297
2.39118
-1.33364
2.09164
-5.57442
-5.08131
-1.91956
-0.443965
3.64605
-3.93052
-7.0845
-5.74488
0.463146
-3.51305
-6.92306
-10.7436
-9.59297
-1.13257
-11.2471
-8.59717
-2.52312
0.27546
-3.54983
-4.55879
14.6204
19.3504
14.0028
-0.337551
-15.3074
17.5938
7.86361
31.4179
16.9233
37.4233
56.0714
61.0181
51.3303
46.3818
28.763
-4.30211
6.01772
-1.74162
2.15071
12.3474
52.116
11.2701
49.4047
18.628
48.2889
15.1458
47.081
78.0777
84.3052
75.5385
83.1166
73.3497
60.2575
36.6354
-2.18568
1.55388
28.7213
-16.3095
15.0705
52.4381
58.3319
16.5197
34.7726
48.4523
48.5281
33.4586
-5.8104
-16.1714
11.6247
25.9226
23.8882
-2.97335
-21.8041
-3.92881
10.6152
14.589
-1.45374
-13.1154
-5.2055
3.08825
7.07216
-0.535101
-5.49345
-5.54303
-3.1832
-0.135644
0.373754
-7.88854
-9.76372
-10.1675
-7.04058
-1.41356
-12.2868
-5.72181
1.79587
3.2909
-2.44072
-6.13037
7.86109
10.4899
24.0583
-6.02948
8.35312
13.25
26.6005
30.7875
28.2448
17.9951
0.836101
25.3338
13.6967
66.5473
4.23946
32.1153
17.8301
77.5217
39.8534
69.9278
93.1497
101.838
49.0125
75.8419
107.969
110.468
54.6961
51.0163
71.3797
59.817
57.0274
51.6405
74.6972
60.696
63.0402
34.5958
26.5798
93.1518
24.1542
89.9578
31.3753
109.973
27.7591
106.215
124.272
136.732
121.783
135.53
143.684
147.017
140.894
145.747
89.0318
74.5064
88.667
74.5611
92.8915
75.5411
92.5847
75.7135
81.874
44.3892
13.0342
62.3736
1.75228
21.3575
17.7383
72.3231
-1.40167
24.7967
89.287
97.4203
36.4443
65.3928
102.793
105.774
43.6231
71.4737
88.9671
69.3971
42.9179
-7.57724
4.24256
21.9707
-13.8087
6.5195
8.40335
27.0824
-7.93478
12.9954
37.315
45.2574
35.3135
-5.24646
-17.5862
-1.33253
-16.8059
-2.0939
-5.53913
8.56272
0.167206
10.5359
17.4037
30.2968
27.5232
-3.65511
-14.9457
-3.5088
-15.9115
-3.74088
2.7798
9.26961
-1.08262
6.60896
10.8668
20.0794
19.0483
-2.01653
-6.36398
0.00186668
6.34786
8.07982
-0.692987
-10.2784
-12.3333
-8.09237
-3.2504
-0.744628
-6.08135
-2.4708
0.540348
1.21661
-1.95416
-8.37386
7.84575
7.87386
23.4464
-10.2262
5.02015
0.564075
14.546
21.7815
16.37
9.92107
-1.57822
25.4132
14.7251
64.3259
0.557195
29.0275
4.48384
40.9787
37.5792
69.8365
88.1312
99.3478
17.5967
50.1217
45.164
66.8688
45.7444
40.7355
60.5446
48.1929
31.9877
31.768
40.1704
35.8815
37.7273
20.3589
25.1554
93.3787
22.6804
90.6197
12.4728
48.8259
11.7133
50.8061
118.596
130.173
116.258
128.963
57.2759
88.5805
56.2825
87.5261
75.0143
59.6419
74.7388
59.8722
50.2322
45.2022
49.9815
45.4988
50.8877
28.3844
15.357
63.0329
-0.753262
20.6083
6.57061
40.6807
-5.93927
14.783
83.956
93.568
32.5376
64.9713
41.2208
61.064
10.0919
45.1781
62.7598
52.4962
49.6962
46.9027
42.4588
40.4309
36.4902
38.684
49.3439
32.5436
-6.3526
4.60895
29.1636
-2.21711
22.6366
-1.14816
22.6282
4.51572
27.2248
43.5497
47.1963
35.4881
-0.794564
6.40755
1.19759
13.737
-0.283461
14.8186
10.2388
32.699
1.5806
43.052
16.4752
50.7227
23.0284
58.1778
256.671
215.676
45.0573
51.369
47.8897
52.0966
53.3988
55.7297
159.369
58.5607
50.8444
36.9097
3.80323
15.2686
-2.19373
9.06052
6.47132
32.7728
2.63215
18.5664
19.5106
50.965
8.33939
43.9266
259.81
216.588
30.9347
61.1477
45.1939
48.022
40.997
45.2841
157.423
55.0695
51.5238
51.5208
44.5728
31.4494
-2.98088
6.65849
13.8469
1.43757
5.20522
13.2087
22.5652
-3.07974
7.39552
17.5824
21.8108
17.552
-2.33018
-15.055
-12.0636
-3.39014
1.39075
0.193769
2.42396
-1.60785
-4.70651
-4.07506
0.237162
0.843336
-10.1429
-10.4348
-6.16115
-2.43421
6.33923
-9.88399
0.574503
-12.3507
-28.4561
-35.6788
-66.096
-56.6203
-8.88349
-10.3788
-9.98653
-10.878
-25.9613
-21.464
-36.2172
-26.4158
-19.0744
-7.77683
1.58916
-5.09386
1.6921
-0.558957
-11.0898
-68.5947
-12.9161
-67.4727
0.182569
-24.0878
0.451473
-25.0196
-84.3381
-80.7111
-84.9171
-82.0853
-13.737
-14.7747
-14.0713
-14.4765
-45.9666
-33.2063
-46.5191
-32.9881
-20.7951
-4.81176
-6.43773
-5.86272
-11.5868
-7.14164
-9.15697
-73.5794
-57.2036
-44.2352
-37.4993
-5.38446
-2.81483
-2.06994
0.297742
-32.26
-18.5588
-20.1043
-10.987
-4.55209
6.45835
-4.14083
0.527244
-4.7847
4.18466
-4.67831
-7.70776
0.186173
10.396
-11.9615
15.4802
8.89565
33.8633
-22.4666
4.64166
14.013
34.6689
17.7106
22.1763
29.5473
29.4777
9.00905
15.948
28.0667
27.4354
29.0357
24.0694
2.89062
24.521
13.1307
48.8056
6.95024
34.5804
16.4635
56.1195
34.0609
92.0541
277.297
252.352
47.9079
100.206
291.706
262.711
75.031
78.7119
183.882
83.8233
78.525
79.8331
189.58
86.6205
28.5629
25.1931
31.1618
26.5782
28.5419
24.8093
32.2691
26.926
38.372
15.4772
50.4011
6.70849
29.8145
12.8853
55.4888
4.15706
34.7838
280.437
253.724
43.0081
96.934
293.423
263.91
54.5265
105.684
184.064
83.0234
77.0876
78.7255
190.177
86.3796
82.4087
81.7824
30.8645
26.0572
28.5231
24.6441
32.4739
26.7981
30.1266
25.481
38.5463
-3.25022
21.1102
33.1475
-6.78801
12.033
29.3767
38.7559
-1.87594
15.0872
30.935
28.0283
17.6962
19.801
34.5432
30.2729
19.8269
21.2698
34.3269
23.9549
-2.9364
-13.7797
-8.41318
1.59797
4.87858
0.989131
10.1897
0.322834
-7.66879
-7.68479
2.24309
16.2961
-4.36979
-7.46809
-22.1031
12.7206
-5.93506
-9.71852
-25.1539
-34.5788
-30.7195
-18.8744
0.223351
-37.0448
-17.0668
-83.2772
-2.98974
-32.073
-16.5206
-81.0409
-39.4184
-80.9759
-97.5898
-114.801
-44.4986
-87.043
-106.896
-124.389
-57.22
-54.488
-74.0794
-62.8328
-62.2084
-58.2423
-81.383
-67.9806
-62.8794
-30.7111
-23.8117
-106.698
-25.1438
-109.262
-27.0546
-116.058
-32.7195
-121.027
-126.644
-168.909
-129.482
-170.919
-142.387
-181.147
-145.957
-183.141
-95.1852
-81.1686
-95.9162
-81.0424
-104.041
-87.1754
-104.739
-87.0836
-76.8728
-32.765
-16.6954
-89.1922
-2.53856
-43.9405
-17.5304
-89.0547
-2.32656
-42.8578
-105.676
-123.105
-53.8873
-90.5966
-115.26
-132.352
-55.727
-95.3652
-72.2204
-57.422
-53.6583
-46.6343
-79.4137
-62.7042
-58.5718
-50.7795
-49.6598
-17.6558
0.279968
-24.5261
-11.9905
21.5277
25.4066
-22.913
-14.1175
19.4683
22.4445
-6.9705
-1.3084
16.5194
12.874
-10.2758
-4.49195
13.3332
10.0431
5.9975
8.98554
8.77398
41.5753
11.3641
56.5067
7.20831
37.2665
14.0824
53.111
53.3225
101.436
294.394
264.091
46.6924
95.9518
285.472
256.886
75.7262
75.5096
187.746
83.1714
71.6747
72.5528
182.96
80.0221
24.5745
20.7145
28.9842
23.3269
22.511
19.2317
26.9835
21.9754
31.3198
11.8519
53.5087
6.22207
35.183
11.0539
48.4305
4.34547
29.2687
293.721
265.016
54.6994
106.412
283.185
257.023
44.2406
98.893
190.153
85.6824
82.2126
81.1448
185.148
82.5774
77.6762
78.4235
31.2294
25.3419
29.0283
24.1835
29.3669
24.1411
27.4288
23.1693
35.997
-2.13154
30.3
39.2563
-0.58193
15.4964
23.6192
34.1129
-5.41408
12.2035
34.5256
30.041
19.7306
21.0205
31.2933
28.0601
17.711
19.7424
34.4504
23.2607
-2.78936
-12.753
-7.06605
2.23239
4.86084
1.14569
12.8759
5.08151
-4.13983
-6.05721
4.00563
6.96364
-3.4072
-7.02632
-19.1236
5.56462
-2.62375
2.27376
-12.4573
-29.7387
-29.8247
-19.9022
-3.56955
-24.4484
-13.3415
-64.0792
3.03807
-4.25637
-3.69958
-32.8236
-38.5692
-64.5865
-91.7301
-97.6619
-14.2465
-48.6485
-52.0298
-72.8125
-86.6246
-63.5375
-34.4639
-22.4041
-93.6341
-18.9912
-95.106
-6.08259
-53.0765
-8.06827
-54.4742
-122.189
-141.059
-124.552
-142.625
-70.8713
-110.177
-72.0628
-111.132
-93.7989
-79.2628
-94.2687
-79.1589
-78.0794
-71.5288
-78.3643
-71.451
-78.9965
-38.7258
-13.2366
-69.8347
-1.62698
-33.6065
-4.09457
-39.0738
3.50326
-15.451
-95.7966
-107.851
-44.466
-74.8734
-53.679
-81.5894
-17.931
-57.7095
-73.0533
-59.6104
-54.2294
-48.7095
-59.7321
-53.2149
-45.6187
-44.6801
-55.0993
-25.5024
1.36081
-14.8315
-14.6386
14.9926
13.8402
-5.43336
-8.99604
7.33148
8.57798
-10.1879
-6.33207
-0.980751
3.11819
30.0642
10.8374
44.0452
2.43088
19.3302
3.29328
25.2448
37.7777
63.7205
269.626
223.098
14.2449
48.2073
30.1773
58.8448
47.0017
45.0164
156.726
51.3677
38.3943
40.1573
45.3797
44.8905
33.6354
19.748
10.9942
39.2389
-0.660124
19.7753
1.49619
20.5312
-3.27795
10.7519
266.901
222.133
33.5364
64.2328
28.0981
57.6693
11.6623
47.8678
158.647
53.8314
51.9926
50.521
47.0203
47.0567
42.1302
44.6621
41.7776
25.2064
-1.85661
14.5179
21.2332
-7.92827
3.88786
4.63619
12.4567
-9.71948
0.695936
19.1732
22.2038
15.7954
-1.34972
-16.5518
-10.2995
-2.32701
1.16784
0.230267
7.82029
9.59649
4.30209
0.165889
2.43274
6.74623
-8.49676
-12.6682
-10.5966
3.73854
-1.49711
-16.3003
-21.5614
-29.5882
10.0628
-3.90553
5.19358
-8.65727
-33.6574
-33.0299
-21.6621
2.12237
-32.5679
-46.5266
-32.7603
-46.9618
4.71675
-19.4538
4.52861
-19.7466
-50.0456
-42.7694
-25.6378
2.43153
-23.7391
-30.8439
-6.08594
-18.2929
1.56713
-9.94081
2.39467
-6.73853
-36.514
-30.9157
-18.0935
1.06116
1.49593
-5.66046
-5.99281
-3.29714
-0.595136
6.32544
15.0355
10.0529
19.1307
0.676354
6.92319
-6.86323
6.2347
16.3856
13.9966
9.16729
-1.04018
9.62719
16.5381
5.75915
12.7509
-9.79052
3.14066
-5.55526
3.47686
17.3305
17.7777
12.2589
-1.71237
1.29373
4.64061
6.9544
5.98931
-0.0486737
-8.58047
-10.8341
-7.93141
-3.91835
-0.57897
8.9449
15.2011
13.367
7.44529
0.199603
7.07662
12.1205
6.5302
1.5449
1.24619
17.625
10.4802
-1.16371
-4.65949
1.54063
11.8706
10.1659
13.3025
10.398
14.6052
15.7749
19.9983
16.959
8.88475
-5.60843
-7.71073
1.00127
13.0919
6.39803
-4.3155
-5.83981
0.186468
2.1285
3.26214
-0.0415891
-1.00626
-0.431219
-4.41545
-0.14062
2.90763
2.82622
-1.11405
-8.09577
-2.05976
1.9847
2.69465
-0.590708
-3.47356
-4.7619
-3.82369
-1.73416
0.409717
-10.2177
-12.8216
-12.1561
-7.94662
SCALARS m0 double 1
LOOKUP_TABLE table1
0
0
0
0
0
0
0
0
0
0
0
0
0
0
0
0
0
0
0
0
0
0
0
0
0
0
0
0
0
0
0
0
0
0
0
0
0
0
0
0
0
0
0
0
0
0
0
0
0
0
0
0
0
0
0
0
0
0
0
0
0
0
0
0
0
0
0
0
0
0
0
0
0
0
0
0
0
0
0
0
0
0
0
0
0
0
0
0
0
0
0
0
0
0
0
0
0
0
0
0
0
0
0
0
0
0
0
0
0
0
0
0
0
0
0
0
0
0
0
0
0
0
0
0
0
0
0
0
0
0
0
0
0
0
0
0
0
0
0
0
0
0
0
0
0
0
0
0
0
0
0
0
0
0
0
0
0
0
0
0
0
0
0
0
0
0
0
0
0
0
0
0
0
0
0
0
0
0
0
0
0
0
0
0
0
0
0
0
0
0
0
0
0
0
0
0
0
0
0
0
0
0
0
0
0
0
0
0
0
0
0
0
0
0
0
0
0
0
0
0
0
0
0
0
0
0
0
0
0
0
0
0
0
0
0
0
0
0
0
0
0
0
0
0
0
0
0
0
0
0
0
0
0
0
0
0
0
0
0
0
0
0
0
0
0
0
0
0
0
0
0
0
0
0
0
0
0
0
0
0
0
0
0
0
0
0
0
0
0
0
0
0
0
0
0
0
0
0
0
0
0
0
0
0
0
0
0
0
0
0
0
0
0
0
0
0
0
0
0
0
0
0
0
0
0
0
0
0
0
0
0
0
0
0
0
0
0
0
0
0
0
0
0
0
0
0
0
0
0
0
0
0
0
0
0
0
0
0
0
0
0
0
0
0
0
0
0
0
0
0
0
0
0
0
0
0
0
0
0
0
0
0
0
0
0
0
0
0
0
0
0
0
0
0
0
0
0
0
0
0
0
0
0
0
0
0
0
0
0
0
0
0
0
0
0
0
0
0
0
0
0
0
0
0
0
0
0
0
0
0
0
0
0
0
0
0
0
0
0
0
200
200
0
0
0
0
0
0
200
0
0
0
0
0
0
0
0
0
0
0
0
0
0
0
200
200
0
0
0
0
0
0
200
0
0
0
0
0
0
0
0
0
0
0
0
0
0
0
0
0
0
0
0
0
0
0
0
0
0
0
0
0
0
0
0
0
0
0
0
0
0
0
0
0
0
0
0
0
0
0
0
0
0
0
0
0
0
0
0
0
0
0
0
0
0
0
0
0
0
0
0
0
0
0
0
0
0
0
0
0
0
0
0
0
0
0
0
0
0
0
0
0
0
0
0
0
0
0
0
0
0
0
0
0
0
0
0
0
0
0
0
0
0
0
0
0
0
0
0
0
0
0
0
0
0
0
0
0
0
0
0
0
0
0
0
200
200
0
0
200
200
0
0
200
0
0
0
200
0
0
0
0
0
0
0
0
0
0
0
0
0
0
0
0
0
0
200
200
0
0
200
200
0
0
200
0
0
0
200
0
0
0
0
0
0
0
0
0
0
0
0
0
0
0
0
0
0
0
0
0
0
0
0
0
0
0
0
0
0
0
0
0
0
0
0
0
0
0
0
0
0
0
0
0
0
0
0
0
0
0
0
0
0
0
0
0
0
0
0
0
0
0
0
0
0
0
0
0
0
0
0
0
0
0
0
0
0
0
0
0
0
0
0
0
0
0
0
0
0
0
0
0
0
0
0
0
0
0
0
0
0
0
0
0
0
0
0
0
0
0
0
0
0
0
0
0
0
0
0
0
0
0
0
0
0
0
0
0
0
0
0
0
0
0
0
0
0
0
0
0
0
0
0
0
0
0
0
0
0
0
0
0
0
0
0
0
0
0
0
200
200
0
0
200
200
0
0
200
0
0
0
200
0
0
0
0
0
0
0
0
0
0
0
0
0
0
0
0
0
0
200
200
0
0
200
200
0
0
200
0
0
0
200
0
0
0
0
0
0
0
0
0
0
0
0
0
0
0
0
0
0
0
0
0
0
0
0
0
0
0
0
0
0
0
0
0
0
0
0
0
0
0
0
0
0
0
0
0
0
0
0
0
0
0
0
0
0
0
0
0
0
0
0
0
0
0
0
0
0
0
0
0
0
0
0
0
0
0
0
0
0
0
0
0
0
0
0
0
0
0
0
0
0
0
0
0
0
0
0
0
0
0
0
0
0
0
0
0
0
0
0
0
0
0
0
0
0
0
0
0
0
0
0
0
0
0
0
0
0
0
0
0
0
0
0
0
0
0
0
0
0
0
0
0
0
0
0
0
0
200
200
0
0
0
0
0
0
200
0
0
0
0
0
0
0
0
0
0
0
0
0
0
0
200
200
0
0
0
0
0
0
200
0
0
0
0
0
0
0
0
0
0
0
0
0
0
0
0
0
0
0
0
0
0
0
0
0
0
0
0
0
0
0
0
0
0
0
0
0
0
0
0
0
0
0
0
0
0
0
0
0
0
0
0
0
0
0
0
0
0
0
0
0
0
0
0
0
0
0
0
0
0
0
0
0
0
0
0
0
0
0
0
0
0
0
0
0
0
0
0
0
0
0
0
0
0
0
0
0
0
0
0
0
0
0
0
0
0
0
0
0
0
0
0
0
0
0
0
0
0
0
0
0
0
0
0
0
0
0
0
0
0
0
0
0
0
0
0
0
0
0
0
0
0
0
0
0
0
0
0
0
0
0
0
0
0
0
0
0
0
0
0
0
0
0
0
0
0
0
0
SCALARS m0s double 1
LOOKUP_TABLE table2
0
0
0
0
0
0
0
0
0
0
0
0
0
0
0
0
0
0
0
0
0
0
0
0
0
0
0
0
0
0
0
0
0
0
0
0
0
0
0
0
0
0
0
0
0
0
0
0
0
0
0
0
0
0
0
0
0
0
0
0
0
0
0
0
0
0
0
0
0
0
0
0
0
0
0
0
0
0
0
0
0
0
0
0
0
0
0
0
0
0
0
0
0
0
0
0
0
0
0
0
0
0
0
0
0
0
0
0
0
0
0
0
0
0
0
0
0
0
0
0
0
0
0
0
0
0
0
0
0
0
0
0
0
0
0
0
0
0
0
0
0
0
0
0
0
0
0
0
0
0
0
0
0
0
0
0
0
0
0
0
0
0
0
0
0
0
0
0
0
0
0
0
0
0
0
0
0
0
0
0
0
0
0
0
0
0
0
0
0
0
0
0
0
0
0
0
0
0
0
0
0
0
0
0
0
0
0
0
0
0
0
0
0
0
0
0
0
0
0
0
0
0
0
0
0
0
0
0
0
0
0
0
0
0
0
0
0
0
0
0
0
0
0
0
0
0
0
0
0
0
0
0
0
0
0
0
0
0
0
0
0
0
0
0
0
0
0
0
0
0
0
0
0
0
0
0
0
0
0
0
0
0
0
0
0
0
0
0
0
0
0
0
0
0
0
0
0
0
0
0
0
0
0
0
0
0
0
0
0
0
0
0
0
0
0
0
0
0
0
0
0
0
0
0
0
0
0
0
0
0
0
0
0
0
0
0
0
0
0
0
0
0
0
0
0
0
0
0
0
0
0
0
0
0
0
0
0
0
0
0
0
0
0
0
0
0
0
0
0
0
0
0
0
0
0
0
0
0
0
0
0
0
0
0
0
0
0
0
0
0
0
0
0
0
0
0
0
0
0
0
0
0
0
0
0
0
0
0
0
0
0
0
0
0
0
0
0
0
0
0
0
0
0
0
0
0
0
0
0
0
0
0
0
0
0
0
0
0
0
0
0
0
0
0
0
0
0
0
0
0
0
0
0
0
0
0
0
0
0
0
0
0
0
0
0
0
0
0
0
0
0
0
0
0
0
0
0
0
0
0
0
0
0
0
0
0
0
0
0
0
0
0
0
0
0
0
0
0
0
0
0
0
0
0
0
0
0
0
0
0
0
0
0
0
0
0
0
0
0
0
0
0
0
0
0
0
0
0
0
0
0
0
0
0
0
0
0
0
0
0
0
0
0
0
0
0
0
0
0
0
0
0
0
0
0
0
0
0
0
0
0
0
0
0
0
0
0
0
0
0
0
0
0
0
0
0
0
0
0
0
0
0
0
0
0
0
0
0
0
0
0
0
0
0
0
0
0
0
0
0
0
0
0
0
0
0
0
0
0
0
0
0
0
0
0
0
0
0
0
0
0
0
0
0
0
0
0
0
0
0
0
0
0
0
0
0
0
0
0
0
0
0
0
0
0
0
0
0
0
0
0
0
0
0
0
0
0
0
0
0
0
0
0
0
0
0
0
0
0
0
0
0
0
0
0
0
0
0
0
0
0
0
0
0
0
0
0
0
0
0
0
0
0
0
0
0
0
0
0
0
0
0
0
0
0
0
0
0
0
0
0
0
0
0
0
0
0
0
0
0
0
0
0
0
0
0
0
0
0
0
0
0
0
0
0
0
0
0
0
0
0
0
0
0
0
0
0
0
0
0
0
0
0
0
0
0
0
0
0
0
0
0
0
0
0
0
0
0
0
0
0
0
0
0
0
0
0
0
0
0
0
0
0
0
0
0
0
0
0
0
0
0
0
0
0
0
0
0
0
0
0
0
0
0
0
0
0
0
0
0
0
0
0
0
0
0
0
0
0
0
0
0
0
0
0
0
0
0
0
0
0
0
0
0
0
0
0
0
0
0
0
0
0
0
0
0
0
0
0
0
0
0
0
0
0
0
0
0
0
0
0
0
0
0
0
0
0
0
0
0
0
0
0
0
0
0
0
0
0
0
0
0
0
0
0
0
0
0
0
0
0
0
0
0
0
0
0
0
0
0
0
0
0
0
0
0
0
0
0
0
0
0
0
0
0
0
0
0
0
0
0
0
0
0
0
0
0
0
0
0
0
0
0
0
0
0
0
0
0
0
0
0
0
0
0
0
0
0
0
0
0
0
0
0
0
0
0
0
0
0
0
0
0
0
0
0
0
0
0
0
0
0
0
0
0
0
0
0
0
0
0
0
0
0
0
0
0
0
0
0
0
0
0
0
0
0
0
0
0
0
0
0
0
0
0
0
0
0
0
0
0
0
0
0
0
0
0
0
0
0
0
0
0
0
0
0
0
0
0
0
0
0
0
0
0
0
0
0
0
0
0
0
0
0
0
0
0
0
0
0
0
0
0
0
0
0
0
0
0
0
0
0
0
0
0
0
0
0
0
0
0
0
0
0
0
0
0
0
0
0
0
0
0
0
0
0
0
0
0
0
0
0
0
0
0
0
0
0
0
0
0
0
0
0
0
0
0
0
0
0
0
0
0
0
0
0
0
0
0
0
0
0
0
0
0
0
0
0
0
0
0
0
0
0
0
0
0
0
0
0
0
0
0
0
0
0
0
0
0
0
0
0
0
0
0
0
0
0
0
0
0
0
0
0
0
0
0
0
0
0
0
0
0
0
0
0
0
0
0
0
0
0
0
0
0
0
0
0
0
0
0
0
0
0
0
0
0
0
0
0

POINT_DATA	1200
SCALARS model double 1
LOOKUP_TABLE table0
0.650233
-9.16257
-14.3084
-15.9004
-11.985
-0.065331
-2.12135
-11.2298
-11.5632
-7.89551
-0.803678
-10.3359
-12.2998
-8.30057
-4.04178
-1.04728
-13.2785
-13.9112
-7.3775
-2.2535
-0.824415
-11.6205
-14.6527
-8.97924
-3.0788
0.0311576
-9.10851
-14.5677
-11.1545
-5.2461
0.294234
-6.55133
-12.0908
-11.4486
-7.04885
0.0561949
-4.58497
-7.48676
-9.97319
-8.12721
-0.205332
2.38574
-4.091
-9.32726
-9.36166
0.24457
-1.12721
-6.72368
-11.3915
-11.211
-0.2796
-2.5574
-10.1433
-9.36237
-5.87291
-1.03039
-8.19808
-1.9271
2.37056
3.02152
-2.70385
-9.62653
7.67164
15.0206
12.0312
-2.95592
-7.72637
-0.391564
-4.48612
0.195897
-5.0276
9.53715
-6.22319
9.08609
13.9157
21.0571
16.551
-2.85003
-8.87984
5.81162
15.3058
14.3543
-1.15137
-14.7198
-5.58951
4.47697
8.23489
-0.95336
-4.88667
-8.2705
-2.53297
2.39118
-1.33364
2.09164
-5.57442
-5.08131
-1.91956
-0.443965
3.64605
-3.93052
-7.0845
-5.74488
0.463146
-3.51305
-6.92306
-10.7436
-9.59297
-1.13257
-11.2471
-8.59717
-2.52312
0.27546
-3.54983
-4.55879
14.6204
19.3504
14.0028
-0.337551
-15.3074
17.5938
7.86361
31.4179
16.9233
37.4233
56.0714
61.0181
51.3303
46.3818
28.763
-4.30211
6.01772
-1.74162
2.15071
12.3474
52.116
11.2701
49.4047
18.628
48.2889
15.1458
47.081
78.0777
84.3052
75.5385
83.1166
73.3497
60.2575
36.6354
-2.18568
1.55388
28.7213
-16.3095
15.0705
52.4381
58.3319
16.5197
34.7726
48.4523
48.5281
33.4586
-5.8104
-16.1714
11.6247
25.9226
23.8882
-2.97335
-21.8041
-3.92881
10.6152
14.589
-1.45374
-13.1154
-5.2055
3.08825
7.07216
-0.535101
-5.49345
-5.54303
-3.1832
-0.135644
0.373754
-7.88854
-9.76372
-10.1675
-7.04058
-1.41356
-12.2868
-5.72181
1.79587
3.2909
-2.44072
-6.13037
7.86109
10.4899
24.0583
-6.02948
8.35312
13.25
26.6005
30.7875
28.2448
17.9951
0.836101
25.3338
13.6967
66.5473
4.23946
32.1153
17.8301
77.5217
39.8534
69.9278
93.1497
101.838
49.0125
75.8419
107.969
110.468
54.6961
51.0163
71.3797
59.817
57.0274
51.6405
74.6972
60.696
63.0402
34.5958
26.5798
93.1518
24.1542
89.9578
31.3753
109.973
27.7591
106.215
124.272
136.732
121.783
135.53
143.684
147.017
140.894
145.747
89.0318
74.5064
88.667
74.5611
92.8915
75.5411
92.5847
75.7135
81.874
44.3892
13.0342
62.3736
1.75228
21.3575
17.7383
72.3231
-1.40167
24.7967
89.287
97.4203
36.4443
65.3928
102.793
105.774
43.6231
71.4737
88.9671
69.3971
42.9179
-7.57724
4.24256
21.9707
-13.8087
6.5195
8.40335
27.0824
-7.93478
12.9954
37.315
45.2574
35.3135
-5.24646
-17.5862
-1.33253
-16.8059
-2.0939
-5.53913
8.56272
0.167206
10.5359
17.4037
30.2968
27.5232
-3.65511
-14.9457
-3.5088
-15.9115
-3.74088
2.7798
9.26961
-1.08262
6.60896
10.8668
20.0794
19.0483
-2.01653
-6.36398
0.00186668
6.34786
8.07982
-0.692987
-10.2784
-12.3333
-8.09237
-3.2504
-0.744628
-6.08135
-2.4708
0.540348
1.21661
-1.95416
-8.37386
7.84575
7.87386
23.4464
-10.2262
5.02015
0.564075
14.546
21.7815
16.37
9.92107
-1.57822
25.4132
14.7251
64.3259
0.557195
29.0275
4.48384
40.9787
37.5792
69.8365
88.1312
99.3478
17.5967
50.1217
45.164
66.8688
45.7444
40.7355
60.5446
48.1929
31.9877
31.768
40.1704
35.8815
37.7273
20.3589
25.1554
93.3787
22.6804
90.6197
12.4728
48.8259
11.7133
50.8061
118.596
130.173
116.258
128.963
57.2759
88.5805
56.2825
87.5261
75.0143
59.6419
74.7388
59.8722
50.2322
45.2022
49.9815
45.4988
50.8877
28.3844
15.357
63.0329
-0.753262
20.6083
6.57061
40.6807
-5.93927
14.783
83.956
93.568
32.5376
64.9713
41.2208
61.064
10.0919
45.1781
62.7598
52.4962
49.6962
46.9027
42.4588
40.4309
36.4902
38.684
49.3439
32.5436
-6.3526
4.60895
29.1636
-2.21711
22.6366
-1.14816
22.6282
4.51572
27.2248
43.5497
47.1963
35.4881
-0.794564
6.40755
1.19759
13.737
-0.283461
14.8186
10.2388
32.699
1.5806
43.052
16.4752
50.7227
23.0284
58.1778
256.671
215.676
45.0573
51.369
47.8897
52.0966
53.3988
55.7297
159.369
58.5607
50.8444
36.9097
3.80323
15.2686
-2.19373
9.06052
6.47132
32.7728
2.63215
18.5664
19.5106
50.965
8.33939
43.9266
259.81
216.588
30.9347
61.1477
45.1939
48.022
40.997
45.2841
157.423
55.0695
51.5238
51.5208
44.5728
31.4494
-2.98088
6.65849
13.8469
1.43757
5.20522
13.2087
22.5652
-3.07974
7.39552
17.5824
21.8108
17.552
-2.33018
-15.055
-12.0636
-3.39014
1.39075
0.193769
2.42396
-1.60785
-4.70651
-4.07506
0.237162
0.843336
-10.1429
-10.4348
-6.16115
-2.43421
6.33923
-9.88399
0.574503
-12.3507
-28.4561
-35.6788
-66.096
-56.6203
-8.88349
-10.3788
-9.98653
-10.878
-25.9613
-21.464
-36.2172
-26.4158
-19.0744
-7.77683
1.58916
-5.09386
1.6921
-0.558957
-11.0898
-68.5947
-12.9161
-67.4727
0.182569
-24.0878
0.451473
-25.0196
-84.3381
-80.7111
-84.9171
-82.0853
-13.737
-14.7747
-14.0713
-14.4765
-45.9666
-33.2063
-46.5191
-32.9881
-20.7951
-4.81176
-6.43773
-5.86272
-11.5868
-7.14164
-9.15697
-73.5794
-57.2036
-44.2352
-37.4993
-5.38446
-2.81483
-2.06994
0.297742
-32.26
-18.5588
-20.1043
-10.987
-4.55209
6.45835
-4.14083
0.527244
-4.7847
4.18466
-4.67831
-7.70776
0.186173
10.396
-11.9615
15.4802
8.89565
33.8633
-22.4666
4.64166
14.013
34.6689
17.7106
22.1763
29.5473