# vtk DataFile Version 3.0
Gravity inversion using rectangular prisms
ASCII
DATASET UNSTRUCTURED_GRID

POINTS	3755	double
0	0	0
0	0	200
0	0	400
0	0	600
0	0	800
0	0	1000
0	200	0
0	200	200
0	200	400
0	200	600
0	200	800
0	200	1000
0	400	0
0	400	200
0	400	400
0	400	600
0	400	800
0	400	1000
0	600	0
0	600	200
0	600	400
0	600	600
0	600	800
0	600	1000
0	800	0
0	800	200
0	800	400
0	800	600
0	800	800
0	800	1000
0	1000	0
0	1000	200
0	1000	400
0	1000	600
0	1000	800
0	1000	1000
0	1200	0
0	1200	200
0	1200	400
0	1200	600
0	1200	800
0	1200	1000
0	1400	0
0	1400	200
0	1400	400
0	1400	600
0	1400	800
0	1400	1000
0	1600	0
0	1600	200
0	1600	400
0	1600	600
0	1600	800
0	1600	1000
0	1800	0
0	1800	200
0	1800	400
0	1800	600
0	1800	800
0	1800	1000
0	2000	0
0	2000	200
0	2000	400
0	2000	600
0	2000	800
0	2000	1000
200	0	0
200	0	200
200	0	400
200	0	600
200	0	800
200	0	1000
200	200	0
200	200	200
200	200	400
200	200	600
200	200	800
200	200	1000
200	400	0
200	400	200
200	400	400
200	400	600
200	400	800
200	400	1000
200	600	0
200	600	100
200	600	200
200	600	300
200	600	400
200	600	600
200	600	800
200	600	1000
200	700	0
200	700	100
200	700	200
200	700	300
200	700	400
200	800	0
200	800	100
200	800	200
200	800	300
200	800	400
200	800	600
200	800	800
200	800	1000
200	1000	0
200	1000	200
200	1000	400
200	1000	600
200	1000	800
200	1000	1000
200	1200	0
200	1200	200
200	1200	400
200	1200	600
200	1200	800
200	1200	1000
200	1400	0
200	1400	200
200	1400	400
200	1400	600
200	1400	800
200	1400	1000
200	1600	0
200	1600	200
200	1600	400
200	1600	600
200	1600	800
200	1600	1000
200	1800	0
200	1800	200
200	1800	400
200	1800	600
200	1800	800
200	1800	1000
200	2000	0
200	2000	200
200	2000	400
200	2000	600
200	2000	800
200	2000	1000
300	600	0
300	600	100
300	600	200
300	600	300
300	600	400
300	700	0
300	700	100
300	700	200
300	700	300
300	700	400
300	800	0
300	800	100
300	800	200
300	800	300
300	800	400
400	0	0
400	0	200
400	0	400
400	0	600
400	0	800
400	0	1000
400	200	0
400	200	200
400	200	400
400	200	600
400	200	800
400	200	1000
400	400	0
400	400	100
400	400	200
400	400	300
400	400	400
400	400	600
400	400	800
400	400	1000
400	500	0
400	500	100
400	500	200
400	500	300
400	500	400
400	600	0
400	600	100
400	600	150
400	600	200
400	600	250
400	600	300
400	600	400
400	600	500
400	600	600
400	600	800
400	600	1000
400	650	100
400	650	150
400	650	200
400	650	250
400	650	300
400	700	0
400	700	100
400	700	150
400	700	200
400	700	250
400	700	300
400	700	400
400	700	500
400	700	600
400	750	100
400	750	150
400	750	200
400	750	250
400	750	300
400	800	0
400	800	100
400	800	150
400	800	200
400	800	250
400	800	300
400	800	400
400	800	500
400	800	600
400	800	800
400	800	1000
400	900	0
400	900	100
400	900	200
400	900	300
400	900	400
400	1000	0
400	1000	100
400	1000	200
400	1000	300
400	1000	400
400	1000	600
400	1000	800
400	1000	1000
400	1100	200
400	1100	300
400	1100	400
400	1200	0
400	1200	200
400	1200	300
400	1200	400
400	1200	600
400	1200	800
400	1200	1000
400	1400	0
400	1400	200
400	1400	400
400	1400	600
400	1400	800
400	1400	1000
400	1600	0
400	1600	200
400	1600	400
400	1600	600
400	1600	800
400	1600	1000
400	1800	0
400	1800	200
400	1800	400
400	1800	600
400	1800	800
400	1800	1000
400	2000	0
400	2000	200
400	2000	400
400	2000	600
400	2000	800
400	2000	1000
450	600	100
450	600	150
450	600	200
450	600	250
450	600	300
450	650	100
450	650	150
450	650	200
450	650	250
450	650	300
450	700	100
450	700	150
450	700	200
450	700	250
450	700	300
450	750	100
450	750	150
450	750	200
450	750	250
450	750	300
450	800	100
450	800	150
450	800	200
450	800	250
450	800	300
500	400	0
500	400	100
500	400	200
500	400	300
500	400	400
500	500	0
500	500	100
500	500	200
500	500	250
500	500	300
500	500	400
500	550	200
500	550	250
500	550	300
500	600	0
500	600	100
500	600	150
500	600	200
500	600	250
500	600	300
500	600	350
500	600	400
500	600	500
500	600	600
500	650	100
500	650	150
500	650	200
500	650	250
500	650	300
500	650	350
500	650	400
500	700	0
500	700	100
500	700	150
500	700	200
500	700	250
500	700	300
500	700	350
500	700	400
500	700	500
500	700	600
500	750	100
500	750	150
500	750	200
500	750	250
500	750	300
500	800	0
500	800	100
500	800	150
500	800	200
500	800	250
500	800	300
500	800	400
500	800	500
500	800	600
500	850	100
500	850	150
500	850	200
500	850	250
500	850	300
500	900	0
500	900	100
500	900	150
500	900	200
500	900	250
500	900	300
500	900	400
500	1000	0
500	1000	100
500	1000	200
500	1000	300
500	1000	400
500	1100	200
500	1100	300
500	1100	400
500	1200	200
500	1200	300
500	1200	400
550	500	200
550	500	250
550	500	300
550	550	200
550	550	250
550	550	300
550	600	100
550	600	150
550	600	200
550	600	250
550	600	300
550	600	350
550	600	400
550	650	100
550	650	150
550	650	200
550	650	250
550	650	300
550	650	350
550	650	400
550	700	100
550	700	150
550	700	200
550	700	250
550	700	300
550	700	350
550	700	400
550	750	100
550	750	150
550	750	200
550	750	250
550	750	300
550	800	100
550	800	150
550	800	200
550	800	250
550	800	300
550	850	100
550	850	150
550	850	200
550	850	250
550	850	300
550	900	100
550	900	150
550	900	200
550	900	250
550	900	300
600	0	0
600	0	200
600	0	400
600	0	600
600	0	800
600	0	1000
600	200	0
600	200	100
600	200	200
600	200	300
600	200	400
600	200	600
600	200	800
600	200	1000
600	300	0
600	300	100
600	300	200
600	300	300
600	300	400
600	400	0
600	400	100
600	400	150
600	400	200
600	400	250
600	400	300
600	400	400
600	400	500
600	400	600
600	400	800
600	400	1000
600	450	100
600	450	150
600	450	200
600	450	250
600	450	300
600	500	0
600	500	50
600	500	100
600	500	150
600	500	200
600	500	250
600	500	300
600	500	350
600	500	400
600	500	500
600	500	600
600	550	0
600	550	50
600	550	100
600	550	150
600	550	200
600	550	250
600	550	300
600	550	350
600	550	400
600	600	0
600	600	50
600	600	100
600	600	150
600	600	200
600	600	250
600	600	300
600	600	350
600	600	400
600	600	500
600	600	600
600	600	800
600	600	1000
600	650	0
600	650	50
600	650	100
600	650	150
600	650	200
600	650	250
600	650	300
600	650	350
600	650	400
600	700	0
600	700	50
600	700	100
600	700	150
600	700	200
600	700	250
600	700	300
600	700	350
600	700	400
600	700	500
600	700	600
600	750	0
600	750	50
600	750	100
600	750	150
600	750	200
600	750	250
600	750	300
600	750	350
600	750	400
600	800	0
600	800	50
600	800	100
600	800	150
600	800	200
600	800	250
600	800	300
600	800	350
600	800	400
600	800	500
600	800	600
600	800	800
600	800	1000
600	850	100
600	850	150
600	850	200
600	850	250
600	850	300
600	900	0
600	900	100
600	900	150
600	900	200
600	900	250
600	900	300
600	900	400
600	900	500
600	900	600
600	950	100
600	950	150
600	950	200
600	950	250
600	950	300
600	1000	0
600	1000	100
600	1000	150
600	1000	200
600	1000	250
600	1000	300
600	1000	400
600	1000	500
600	1000	600
600	1000	800
600	1000	1000
600	1100	0
600	1100	100
600	1100	200
600	1100	300
600	1100	400
600	1200	0
600	1200	100
600	1200	200
600	1200	300
600	1200	400
600	1200	600
600	1200	800
600	1200	1000
600	1300	0
600	1300	100
600	1300	200
600	1300	300
600	1300	400
600	1400	0
600	1400	100
600	1400	200
600	1400	300
600	1400	400
600	1400	600
600	1400	800
600	1400	1000
600	1500	200
600	1500	300
600	1500	400
600	1600	0
600	1600	200
600	1600	300
600	1600	400
600	1600	600
600	1600	800
600	1600	1000
600	1700	200
600	1700	300
600	1700	400
600	1800	0
600	1800	200
600	1800	300
600	1800	400
600	1800	600
600	1800	800
600	1800	1000
600	2000	0
600	2000	200
600	2000	400
600	2000	600
600	2000	800
600	2000	1000
650	400	100
650	400	150
650	400	200
650	400	250
650	400	300
650	450	100
650	450	150
650	450	200
650	450	250
650	450	300
650	500	0
650	500	50
650	500	100
650	500	150
650	500	200
650	500	250
650	500	300
650	500	350
650	500	400
650	550	0
650	550	50
650	550	100
650	550	150
650	550	200
650	550	250
650	550	300
650	550	350
650	550	400
650	600	0
650	600	50
650	600	100
650	600	150
650	600	200
650	600	250
650	600	300
650	600	350
650	600	400
650	650	0
650	650	50
650	650	100
650	650	150
650	650	200
650	650	250
650	650	300
650	650	350
650	650	400
650	700	0
650	700	50
650	700	100
650	700	150
650	700	200
650	700	250
650	700	300
650	700	350
650	700	400
650	750	0
650	750	50
650	750	100
650	750	150
650	750	200
650	750	300
650	750	350
650	750	400
650	800	0
650	800	50
650	800	100
650	800	150
650	800	200
650	800	300
650	800	350
650	800	400
650	850	100
650	850	150
650	850	200
650	900	100
650	900	150
650	900	200
650	900	250
650	900	300
650	950	100
650	950	150
650	950	200
650	950	250
650	950	300
650	1000	100
650	1000	150
650	1000	200
650	1000	250
650	1000	300
700	200	0
700	200	100
700	200	200
700	200	300
700	200	400
700	300	0
700	300	100
700	300	150
700	300	200
700	300	300
700	300	400
700	350	100
700	350	150
700	350	200
700	400	0
700	400	100
700	400	150
700	400	200
700	400	250
700	400	300
700	400	400
700	400	500
700	400	600
700	450	100
700	450	150
700	450	200
700	450	250
700	450	300
700	500	0
700	500	50
700	500	100
700	500	150
700	500	200
700	500	250
700	500	300
700	500	350
700	500	400
700	500	500
700	500	600
700	550	0
700	550	50
700	550	100
700	550	150
700	550	200
700	550	250
700	550	300
700	550	350
700	550	400
700	600	0
700	600	50
700	600	100
700	600	150
700	600	200
700	600	250
700	600	300
700	600	350
700	600	400
700	600	500
700	600	600
700	650	0
700	650	50
700	650	100
700	650	150
700	650	200
700	650	250
700	650	300
700	650	350
700	650	400
700	700	0
700	700	50
700	700	100
700	700	150
700	700	200
700	700	250
700	700	300
700	700	350
700	700	400
700	700	500
700	700	600
700	750	0
700	750	50
700	750	100
700	750	150
700	750	200
700	750	250
700	750	300
700	750	350
700	750	400
700	800	0
700	800	50
700	800	100
700	800	150
700	800	200
700	800	250
700	800	300
700	800	350
700	800	400
700	800	500
700	800	600
700	850	0
700	850	50
700	850	100
700	850	150
700	850	200
700	850	300
700	850	350
700	850	400
700	900	0
700	900	50
700	900	100
700	900	150
700	900	200
700	900	250
700	900	300
700	900	350
700	900	400
700	900	500
700	900	600
700	950	100
700	950	150
700	950	200
700	950	250
700	950	300
700	1000	0
700	1000	100
700	1000	150
700	1000	200
700	1000	250
700	1000	300
700	1000	400
700	1000	500
700	1000	600
700	1100	0
700	1100	100
[...]
CELL_DATA	2495
SCALARS model double 1
LOOKUP_TABLE table0
0.441486
-5.68352
-3.15519
2.43678
4.79146
0.308834
-0.5062
1.06801
3.99039
5.23273
0.430452
-9.40125
1.58508
5.15856
5.76248
0.751573
-6.40356
1.20718
5.49317
5.97339
1.0379
-8.2886
-2.26276
4.07873
5.369
0.937947
-8.83023
-5.46972
1.08972
3.671
0.334456
0.910684
-4.20156
-1.71687
1.19889
0.17293
-1.97832
-4.27889
-3.53563
-1.32901
-0.0730527
1.06477
-2.06615
-3.82407
-3.45573
-0.249198
1.58541
-0.470739
-3.69832
-5.06748
0.879396
-6.84752
1.40706
4.07946
5.013
0.363835
0.157715
4.79071
5.26378
5.28942
0.621628
6.60221
8.8651
7.04295
5.92732
1.24389
0.791019
0.703952
-1.52518
3.13456
6.23211
1.5524
2.19006
-0.00708658
5.39326
-1.12403
5.57538
12.4633
14.7321
9.39014
15.5956
12.8731
8.81887
6.5928
0.0154854
5.87575
11.9535
9.1007
6.75606
0.442313
-4.04042
4.61942
6.82671
6.00074
0.271858
-3.32892
0.000161442
3.43577
4.38334
0.392866
0.467357
-1.00783
0.645542
2.16173
-0.0763266
0.846562
-0.845007
-1.57766
-0.751443
0.0459228
-0.364181
-2.23522
-4.11319
-4.08297
0.364157
0.108155
3.44717
4.08335
4.39226
1.97819
7.32172
5.53313
4.70329
4.35677
2.9749
5.14798
2.652
14.4075
7.07928
24.3348
16.0088
52.3537
18.945
21.1929
32.6717
26.5112
30.389
25.0927
46.2634
47.6254
65.2672
60.901
65.459
65.2427
87.5228
83.2141
33.0905
10.2661
6.29938
4.75158
5.66879
7.87715
15.0434
9.9625
19.0446
22.3326
33.5742
23.632
37.8494
5.6004
9.45274
17.7376
6.76906
14.2036
22.7851
35.0899
16.6459
28.9575
20.7752
40.1281
58.539
43.408
62.1071
63.477
86.8991
68.0624
91.5281
20.8495
41.9135
58.9145
33.9866
50.1546
67.1886
89.9068
56.8814
78.039
24.6637
29.4114
26.5136
33.6364
45.1419
58.2359
47.443
61.4146
48.9501
25.1135
32.4303
22.3238
30.1297
45.9648
55.9499
40.0853
46.5635
48.5667
72.6588
74.0461
76.235
80.1885
103.486
103.384
108.719
111.336
65.1701
45.9477
75.039
65.3694
89.454
63.8111
98.4228
82.6986
71.7339
78.2229
62.9259
68.1198
100.65
105.733
90.3969
96.2264
79.4434
20.0488
17.7112
21.4881
18.3226
20.5652
18.209
23.3057
18.9056
8.51353
5.35947
3.75061
10.032
0.234779
3.75604
8.46962
23.5484
39.3593
16.498
29.3468
43.2743
62.4496
29.7991
47.6451
3.91343
17.0578
28.9802
42.1409
12.4771
27.2302
50.9958
57.4484
39.6569
49.429
73.5206
80.1061
58.1828
68.5847
70.194
32.9339
49.6853
21.2225
9.90224
5.81826
0.330267
3.84873
9.43641
-7.65612
-0.993032
14.693
19.9727
-0.416705
2.56321
13.7457
9.22816
5.95413
0.821214
-7.78054
5.02796
7.3431
5.84004
0.902704
-13.0909
-0.000717925
4.7979
4.97722
0.217255
-0.470876
-1.27891
0.657834
2.06052
0.375495
-1.73799
-6.91415
-5.47537
-2.97546
0.543615
2.66114
2.85601
3.05086
3.29248
0.542598
17.7933
4.87592
16.7906
1.40263
13.0608
6.23136
12.0968
16.1582
14.2127
18.3643
12.5956
17.06
17.0815
21.6826
5.62067
5.33994
7.20619
5.7837
5.46782
5.54136
6.30966
5.73535
3.62451
3.02872
2.85546
12.4085
22.2152
29.8305
38.7082
52.0021
30.7359
37.2817
48.5416
59.4375
9.98396
31.7402
14.5316
44.5803
14.0025
42.9699
18.2686
58.62
57.6011
77.4602
76.7707
98.1186
73.3341
93.3714
96.5426
119.826
15.9392
30.643
35.7387
51.7801
65.1755
28.6346
32.4135
50.2717
60.3784
15.3776
46.3185
20.2098
64.1633
14.7675
45.6058
19.9652
63.81
79.7801
98.2629
106.665
129.604
78.2922
99.0756
106.884
133.743
26.4368
23.2756
53.848
55.11
34.6946
34.3826
62.6079
67.4055
27.4855
83.5767
86.1786
111.191
113.428
97.7366
89.9515
129.349
123.954
61.797
34.6742
91.6857
60.1612
71.5703
42.6001
103.878
68.1907
41.8468
35.4836
69.9643
71.2416
39.8074
30.6272
68.6575
58.798
27.5554
101.052
88.3593
138.397
123.696
100.99
75.2541
136.15
116.794
69.4475
41.3681
101.987
64.6751
55.33
35.7184
84.706
54.1257
7.1926
6.87176
8.29165
7.32597
7.04098
6.83367
7.84567
7.17774
3.77211
2.6992
16.5952
51.2204
17.9564
55.9108
21.9717
67.4721
22.5847
71.041
88.6926
116.59
96.0754
124.667
110.554
141.527
115.873
150.469
17.6057
57.2156
16.3597
51.5508
22.6746
69.9348
20.7075
65.3512
92.0274
125.276
83.4579
113.085
115.147
151.423
104.774
137.294
23.8579
75.5569
25.1927
80.9637
24.2361
76.9639
25.5246
82.8074
121.358
154.664
127.52
165.991
124.694
159.414
130.39
169.574
25.0056
78.8073
23.4262
71.3537
26.3761
81.3158
24.1262
73.4769
127.658
164.596
117.045
149.584
129.133
168.982
117.338
151.96
133.412
135.419
142.616
144.801
155.992
149.493
165.293
165.674
116.81
80.5785
130.966
101.274
130.21
86.3106
150.148
110.074
148.259
133.951
105.211
125.433
104.262
155.545
121.298
145.817
121.813
165.528
158.065
181.174
179.823
165.831
146.355
182.587
173.413
127.266
82.9791
153.342
106.767
111.437
70.3045
140.843
92.6747
183.449
179.757
169.859
169.849
187.351
180.348
172.193
174.787
162.755
120.437
155.505
123.632
156.642
107.074
152.728
113.92
18.3632
14.6443
21.3272
15.4683
17.5595
14.6333
19.7267
15.1764
5.06136
2.68771
26.3956
65.8413
92.347
47.1125
69.2936
85.6178
112.959
60.33
86.0716
9.06758
28.6275
47.7628
16.6534
27.9153
38.0548
58.6046
21.2621
36.8701
18.6554
58.6246
13.249
43.4957
19.3937
58.9061
15.2358
45.9707
94.9573
125.014
68.5358
95.0109
96.7679
127.488
71.4852
96.148
10.2764
41.7616
63.8192
23.0725
39.6302
42.2615
62.5556
24.3805
38.5788
106.341
94.6265
60.3588
70.9508
36.5634
45.982
72.9242
82.6693
45.8826
54.9449
67.0102
123.613
131.808
110.994
110.346
96.9725
127.049
106.801
107.527
96.6914
79.144
91.1714
52.6397
59.9013
76.1754
91.1292
54.3047
61.3645
69.4832
37.7724
24.6713
35.2561
23.4989
34.1728
23.7391
32.3789
22.5989
6.13751
2.8358
2.29119
9.60949
-1.10821
2.90856
2.95914
11.3285
-0.168041
0.196359
17.3195
29.5123
7.2669
7.73331
21.9899
32.7623
8.32329
11.9469
3.71536
6.47087
8.42571
11.4175
4.29277
6.78611
12.4086
15.6322
7.21793
3.66967
-1.01706
-2.88969
0.550284
-0.371254
0.776477
-1.01912
0.147283
5.46513
-0.183101
-0.345723
0.7046
0.379137
7.89283
11.9266
13.6728
21.0484
15.2645
9.54502
5.56811
0.936223
-2.70845
-1.30665
-8.62642
-9.03099
11.5327
20.5278
6.88117
9.83447
13.6971
10.8241
7.18593
-0.0185197
-6.15097
-4.98214
4.32797
0.67698
-0.72662
1.02122
-7.34665
-4.23387
3.77214
6.22218
5.64077
0.27087
-5.23228
-8.98763
-3.63598
-0.189145
0.69728
1.22047
1.44898
1.75833
2.08192
2.82263
10.4036
7.08371
14.2497
-0.215811
12.4491
4.17347
15.5643
1.87856
1.9707
2.04693
1.9863
2.00261
2.02159
2.06097
1.95901
1.17172
1.09246
1.19168
13.8123
31.0569
27.3109
46.4502
46.8149
20.2088
34.0616
37.8418
45.3083
13.7707
45.0303
19.4968
58.3948
12.1427
39.3139
16.6514
50.9598
74.0335
92.7976
99.5784
123.75
62.073
79.5987
81.6248
103.276
7.58957
5.99273
24.0634
25.9903
35.1797
-0.677489
19.9416
14.0347
23.2315
14.6755
41.1094
46.7886
54.6658
64.0286
27.5468
34.3682
33.4195
41.705
15.8655
12.5777
95.4532
63.4522
124.618
110.076
73.499
35.0354
103.464
78.9334
14.6009
26.9291
11.1098
33.0672
15.5292
21.4908
9.92653
25.7579
12.9035
11.686
16.0172
11.9874
1.89698
0.541655
0.258728
23.1215
72.7841
24.9506
78.2803
19.8418
59.0146
20.8645
64.2928
118.596
148.594
125.098
158.375
98.2867
125.097
105.328
135.134
24.3304
77.6312
22.9363
69.7382
21.1468
63.9595
18.922
58.9224
120.021
155.587
108.346
141.009
102.302
130.644
90.4463
116.85
18.1084
65.5158
86.0155
70.5943
95.6778
37.9939
54.2173
42.6662
59.7073
18.6458
70.0994
95.8322
62.2743
85.087
44.54
61.6724
39.3281
55.4312
152.21
129.276
169.261
152.744
126.263
98.5628
140.762
125.467
92.0713
55.0361
122.355
79.8432
66.4416
41.3564
94.4644
61.2708
172.559
168.053
159.056
161.381
145.957
142.423
134.396
140.31
136.22
92.4385
131.563
95.1347
107.459
71.3316
106.4
75.3922
85.2503
71.8237
103.237
99.4779
49.5408
36.4862
67.5747
61.8386
34.755
108.899
107.614
97.7991
101.987
74.9984
70.6042
66.7674
69.5982
35.7629
4.66232
3.50858
6.18391
4.05028
3.69601
3.04809
4.50219
3.38857
-0.312674
-0.828196
27.6823
88.3277
117.1
66.5883
89.9453
74.7786
98.8898
56.1876
77.3626
7.6005
27.3657
11.9332
41.6838
3.80519
19.3585
131.02
133.879
104.086
108.101
113.537
118.747
89.9426
99.3487
54.2503
54.3038
44.4246
44.5886
32.6897
31.486
27.924
7.70621
4.56813
8.33829
5.05943
5.01746
3.59541
5.48054
4.05792
-0.917503
-1.4392
4.54019
8.86077
-1.10142
1.08098
3.18715
10.0614
1.87443
10.3432
23.2021
26.9336
14.3345
22.5108
20.0066
23.7728
25.5946
28.729
7.69666
1.93669
0.0478399
2.41205
1.0396
7.43327
6.84949
14.0295
8.20411
14.0778
14.1292
21.103
7.25139
23.35
8.58635
13.5084
21.1206
21.5473
31.2298
22.1322
30.0122
29.6158
39.8372
15.6793
49.0694
12.123
12.7662
17.6939
20.0398
24.9305
23.2092
30.0246
31.3871
33.5995
23.5567
26.7598
29.2875
31.3509
38.7725
40.0989
43.4576
46.4867
29.3914
32.5611
35.271
38.2383
43.9604
47.4462
48.5175
50.9751
50.9176
57.351
54.5268
54.3205
59.7708
62.269
70.6499
68.847
75.8474
76.5257
58.5303
57.1712
62.4381
60.387
70.5049
69.3371
75.6203
71.328
24.5435
22.9853
28.8993
24.9582
27.4825
23.9614
32.3133
26.0098
9.27336
4.12494
5.13009
25.2309
1.61299
11.0497
14.4063
45.8466
6.29741
23.5008
30.3572
34.0873
27.6093
32.9638
43.9574
50.2795
39.6879
46.7986
49.2883
23.9317
35.5391
58.4737
63.7963
52.2018
58.0534
73.6868
76.3431
65.1224
70.3361
63.0093
61.682
58.7358
58.2406
76.1415
74.3281
71.2131
72.1795
38.7425
45.7545
27.2835
32.2721
49.3454
57.2615
34.8832
41.7689
51.5191
52.9475
40.3151
45.3367
62.1428
66.8553
51.054
56.8417
39.8026
33.874
33.6211
32.3305
47.4551
38.4373
45.0348
38.0362
15.9256
8.42203
-1.67804
0.620884
-0.0618342
-5.80629
0.760529
4.20796
-0.239705
1.54501
5.90344
12.6797
1.78682
8.29834
9.83817
16.0697
5.44276
11.0459
15.6222
-1.93145
0.300539
11.464
29.6151
-1.03908
10.8459
18.8501
20.1188
6.32633
11.753
28.7968
24.188
15.4209
16.4888
13.9019
9.02983
-0.392847
-6.43904
-4.68511
2.07359
3.68902
-0.0711008
-0.0346857
0.258557
0.604643
0.95848
0.013385
-0.520095
0.539106
-0.120168
-0.76048
-0.946205
-4.00466
-1.66945
-1.65219
-1.07426
-0.74638
-0.434159
0.175766
2.74744
15.7124
5.31201
17.4157
-7.04018
-8.33942
-1.21463
-5.78189
-0.560218
3.76663
-7.31021
-2.87991
-20.4969
-11.6328
-21.5967
-14.4598
-50.7329
-27.0764
-56.5268
-14.6603
-17.8827
-26.0709
-27.4199
-38.4833
-41.5999
-59.1179
-53.7025
-65.9178
-5.20486
-5.37367
-4.70438
-5.34021
-6.24024
-5.68546
-8.35216
-6.17158
-3.5774
-2.87107
-2.27752
-1.40188
11.299
9.32942
12.3067
11.9699
-6.39698
-13.9537
-5.77897
-13.2297
-0.44077
-2.15079
-22.3134
-33.8274
-48.5291
-33.7973
-45.8636
-67.849
-87.3479
-71.3146
-90.4018
-21.2291
-34.9545
-41.2712
-37.2986
-46.3859
-69.1088
-86.0617
-61.4754
-80.4668
-11.2408
-17.0096
-13.6899
-18.5083
-38.1129
-27.8237
-44.7183
-32.5252
-10.1293
-6.48283
-4.61729
-0.893775
-1.3746
-0.296728
-0.0385481
-13.9756
-26.3216
-33.952
-14.3223
-21.4253
-47.1444
-62.653
-38.2105
-49.2764
-6.00604
-15.4093
-14.7228
-19.9884
-14.3371
-18.9128
-33.7862
-31.7698
-28.4883
-28.3811
-14.002
-8.61863
-5.89105
-0.192016
2.80493
2.48261
15.9297
-0.039639
3.31928
5.21521
12.1472
3.88491
5.59664
26.8447
19.3713
-2.81149
2.07515
16.1095
13.435
-1.29595
-3.26428
-3.44424
4.91423
14.1493
6.63003
20.4882
5.55708
16.553
7.31714
22.308
25.1951
33.0688
36.2913
49.3712
29.5133
38.0739
39.9441
53.4437
21.4049
46.1774
64.4162
54.1069
74.6897
53.5968
72.9223
60.4044
84.2331
15.318
46.4884
27.0952
80.4237
48.2241
50.2321
68.0871
68.6171
54.954
51.1999
72.919
68.1359
62.8192
82.4259
78.3849
89.0941
85.4665
89.5205
80.4045
96.8469
90.9286
77.378
78.8218
87.1093
82.1376
81.1139
88.7607
91.7351
91.8956
67.1922
57.349
92.3497
89.1475
103.575
104.719
97.7762
101.148
105.574
107.502
76.6824
25.4591
21.4793
32.4183
24.8908
23.6901
21.2515
29.0028
24.2097
7.39393
2.44801
21.9074
54.4385
71.9041
45.1255
61.3805
61.5566
81.9747
50.9573
69.6917
9.61995
31.1437
45.676
18.469
29.6131
35.433
51.146
21.6017
33.0617
23.6203
64.1034
86.0786
52.9495
74.1972
65.2297
87.825
54.6099
75.6238
11.0971
37.4787
54.5452
23.3192
34.2591
38.7401
55.3214
23.1565
35.3112
85.339
86.1762
74.8402
81.3627
95.0754
93.2055
82.8338
87.5907
90.1458
87.5666
84.87
86.4351
97.4587
99.5288
92.5502
96.5901
57.7404
68.041
39.8499
50.581
64.0246
74.6212
44.0097
56.6245
85.3318
99.5749
105.179
86.6333
95.7899
99.5911
107.932
87.5317
97.3278
104.433
65.656
81.1207
46.4344
62.4341
67.1265
83.1145
48.3485
64.8299
90.7518
62.4233
47.6036
63.3774
48.874
60.2538
47.734
61.9767
49.2375
16.9742
8.46888
1.34608
4.84593
-0.292965
3.05187
-0.398334
3.02995
-2.27873
-2.12664
21.1257
30.8761
9.60756
16.3834
24.7233
34.1451
12.3562
19.0098
45.7265
6.01227
6.49983
3.09358
2.03622
6.30174
7.42341
2.84463
2.72766
15.9259
25.2509
35.7771
12.3821
21.9978
25.2263
37.6005
10.3145
23.3927
48.7591
0.724041
13.1617
39.1227
33.2849
21.9387
24.885
38.4786
34.1195
22.8802
27.1924
18.1849
10.7003
-0.0796687
-3.44603
-7.36445
-14.6109
-19.5221
-13.0123
-13.8191
-21.028
-23.8685
0.28619
7.26428
6.46117
-0.603849
-1.00195
-0.689435
-0.380877
-0.0367194
0.807387
-17.591
-2.1948
-18.0665
-32.9944
-17.8594
-45.4233
-15.3859
-35.181
-17.998
-47.548
-1.43088
-12.9498
-5.29858
-22.2199
-5.46188
-5.26204
-5.80304
-5.43809
-5.56058
-5.33311
-5.93138
-5.57259
-3.17986
-2.50443
-1.97925
-5.98269
-19.6091
-10.0744
-28.2278
-5.95938
-17.0407
-9.81766
-32.1698
-16.4932
-44.0374
-43.7813
-48.0288
-20.8689
-49.3877
-51.1144
-61.3961
-12.2437
-36.635
-16.648
-51.6117
-15.433
-45.9067
-19.8966
-62.3047
-62.707
-72.0116
-85.5215
-101.224
-75.434
-86.8101
-104.104
-126.179
-15.037
-28.7447
-54.5028
-52.8636
-70.4676
-34.9464
-38.5044
-49.4086
-64.0727
-16.0514
-47.8087
-21.0543
-65.3424
-15.2969
-46.4315
-21.1377
-62.3049
-82.3743
-102.164
-110.495
-138.028
-81.1434
-102.443
-110.3
-139.873
-46.4342
-28.0881
-59.3056
-34.0939
-49.7935
-32.4123
-68.5609
-42.2989
-21.7065
-70.675
-39.9284
-97.9405
-61.4022
-95.2424
-58.8474
-130.531
-92.8279
-26.1921
-31.3512
-23.5705
-103.23
-61.7561
-141.748
-106.802
-104.525
-65.0652
-141.519
-113.14
-30.6204
-9.01263
-6.26712
-4.72773
-20.4099
-61.3418
-22.2185
-66.9304
-24.6234
-76.5085
-26.7028
-82.7979
-102.253
-126.768
-110.221
-136.186
-125.307
-153.054
-136.727
-165.758
-21.8599
-66.6248
-20.0308
-60.2458
-26.681
-83.3488
-24.1877
-74.8557
-108.433
-131.552
-96.1437
-117.476
-135.567
-162.269
-120.581
-146.165
-26.7066
-82.2226
-28.7302
-90.5989
-26.1107
-78.6801
-29.0005
-87.6322
-133.43
-168.245
-145.872
-182.575
-132.317
-169.936
-143.342
-184.106
-29.485
-91.474
-26.2226
-83.5929
-29.3526
-89.0848
-27.1575
-82.7793
-145.393
-179.808
-130.925
-161.848
-142.7
-182.261
-130.418
-163.265
-117.592
-80.9246
-133.68
-104.488
-154.113
-123.187
-169.918
-149.412
-66.7809
-133.579
-105.896
-117.296
-87.6628
-168.51
-148.105
-149.589
-123.459
-70.5095
-170.365
-130.89
-186.309
-155.472
-170.432
-135.484
-185.482
-157.022
-92.6141
-67.9547
-116.226
-84.6922
-95.2535
-71.7525
-116.811
-88.2806
-183.865
-153.661
-162.993
-127.315
-182.479
-153.5
-159.756
-122.626
-117.025
-85.8396
-98.1734
-76.4549
-116.249
-88.7354
-97.6699
-79.4453
-22.6506
-21.6591
-22.9215
-21.6032
-23.1124
-21.9109
-23.2208
-21.8685
-12.0237
-8.0175
-29.9283
-72.5606
-95.3445
-55.4499
-72.8259
-94.8443
-121.785
-71.9441
-88.915
-10.8727
-43.353
-22.0338
-66.0523
-16.0482
-52.1612
-22.0285
-67.3389
-17.4489
-54.4045
-105.789
-133.184
-83.0811
-95.8474
-106.689
-132.933
-83.2573
-95.6112
-15.5579
-44.8289
-96.8186
-74.9371
-66.7641
-49.4044
-121.882
-98.9628
-85.5102
-63.3719
-36.1239
-33.3034
-32.7894
-130.988
-101.437
-90.6857
-61.9746
-122.236
-90.1486
-78.9181
-52.8698
-36.2671
-32.756
-33.1034
-20.0379
-13.2932
-9.1403
-1.64211
-10.2452
5.85391
8.12251
-3.44033
-2.93775
5.43688
4.14992
0.246321
0.537331
2.65027
2.11737
0.107555
0.149641
0.883956
1.02443
-3.84146
-5.43069
-5.44502
15.0048
29.2895
39.0951
48.442
60.6281
32.0072
37.6903
50.1356
60.7251
25.3305
63.2387
84.8379
67.8902
91.6261
63.7382
85.5654
66.6314
88.9387
16.2806
28.9795
43.5429
48.891
66.7919
31.1636
48.562
47.8477
71.0088
27.7738
64.3705
79.7213
67.5403
84.9581
61.4319
75.3289
64.7371
81.1519
41.8297
34.705
90.7059
93.8577
104.287
108.936
81.8176
83.9052
97.2701
105.856
49.6783
32.8984
31.3572
51.7885
41.9439
12.3013
5.44904
1.25968
22.4703
65.8755
90.1242
55.4207
78.7083
65.4073
90.3772
57.9593
81.3523
6.85837
22.6815
3.58214
13.4683
7.70406
25.1027
4.57263
15.7413
40.5764
57.3409
25.2017
39.3162
42.8087
60.2381
28.3156
42.7119
23.8603
64.8085
84.7387
58.4941
81.1428
59.2924
76.3547
56.0134
75.9543
8.56634
26.272
5.38184
16.8552
8.13938
24.7131
4.98091
16.2301
45.5605
61.445
31.7055
45.0712
44.3648
59.9298
31.1576
46.8771
102.175
85.0924
75.2168
83.2677
92.5913
78.096
79.9981
78.5782
38.4672
33.4151
41.6243
34.8225
35.7506
32.2884
37.9242
33.1101
14.7909
7.54132
0.27663
6.32601
0.782207
-2.61286
-1.06843
11.9268
-4.17606
-0.542479
29.5044
46.4817
10.0917
24.2365
33.8056
52.821
13.6016
28.4072
49.655
-0.200139
6.35795
-5.22069
1.03935
2.3413
9.23701
-2.64857
3.98011
13.8498
37.836
58.2509
20.2168
33.1135
39.0862
60.6823
24.3186
36.7251
48.2832
9.13254
16.6793
27.8782
17.3477
10.2246
-0.913774
-14.7167
-11.016
-18.8386
-18.5409
-0.183767
-3.54014
-2.28961
-8.16957
4.75304
8.7688
6.84756
-0.320701
-1.46899
-1.48471
-1.23442
-0.874423
-2.21571
-4.96094
-4.20724
-10.6025
-0.412748
-9.3217
-2.80116
-16.854
-7.29148
-5.19755
-4.16608
-3.34762
-12.7938
-28.4847
-27.8444
-44.5389
-49.8793
-17.9705
-19.9159
-35.4773
-38.2394
-12.9713
-39.8632
-19.0396
-56.4277
-10.584
-32.3503
-15.9115
-48.3269
-71.1615
-92.036
-101.722
-130.248
-59.313
-75.573
-84.2088
-108.555
-5.97286
-14.6515
-21.4435
-26.43
-32.6016
-18.8525
-24.6403
-22.3646
-29.652
-14.5241
-41.9341
-57.9337
-60.7804
-79.9747
-30.4353
-43.3605
-40.4491
-55.9439
-29.564
-27.1022
-99.2803
-68.4163
-132.809
-115.584
-82.6801
-65.162
-113.194
-105.245
-29.9912
-29.2673
-26.8259
-64.5644
-61.6589
-87.562
-88.8897
-45.0442
-48.3298
-62.4953
-66.7014
-29.6624
-13.5653
-9.17325
-6.73218
-23.0455
-71.8499
-26.2987
-79.5119
-19.4886
-59.681
-22.2439
-66.0512
-122.471
-157.445
-133.194
-170.49
-102.192
-133.057
-112.279
-145.482
-26.9223
-81.052
-24.7946
-74.5674
-22.513
-69.4982
-22.22
-64.9617
-132.713
-170.513
-120.286
-152.472
-113.773
-144.514
-100.137
-127.369
-13.4112
-40.6319
-15.0466
-47.3627
-6.11922
-25.9429
-8.57457
-31.6516
-74.0368
-98.3274
-83.1036
-107.634
-45.7486
-65.9239
-51.5098
-71.4324
-16.7007
-51.6947
-16.4826
-49.8719
-11.288
-36.439
-11.9005
-35.7638
-85.6308
-106.33
-76.3645
-94.7539
-56.1205
-69.2213
-53.9773
-66.4725
-158.392
-140.564
-171.725
-160.518
-137.189
-126.529
-148.567
-142.135
-68.1831
-170.074
-157.646
-147.362
-124.051
-147.816
-138.801
-126.982
-107.487
-67.6524
-107.274
-104.017
-115.674
-115.495
-76.8999
-80.5326
-83.3361
-87.5026
-64.189
-115.915
-115.656
-100.345
-93.0102
-84.6361
-89.6405
-73.7453
-75.8936
-63.6672
-26.5251
-25.2314
-26.3258
-25.1049
-26.2053
-24.9987
-25.9229
-24.8697
-14.9466
-10.1061
-29.815
-97.3706
-118.433
-74.8453
-92.3858
-78.7081
-102.646
-60.4541
-74.0152
-12.7053
-46.8709
-15.5924
-59.805
-78.4176
-44.111
-60.7066
-42.4453
-53.3394
-30.3262
-49.1826
-8.54622
-38.3838
-51.5834
-44.7668
-49.9177
-36.4145
-51.0581
-47.0128
-51.5399
-24.4276
-22.0539
-19.3272
-19.4936
-24.0503
-22.2894
-20.9294
-20.3058
-16.4698
-13.3766
-10.1314
-4.34422
-1.48936
5.24003
1.82611
-0.933592
-3.04566
0.929183
0.957451
-1.41759
-3.3624
-5.02191
-5.60846
13.6723
39.2877
19.9151
49.5645
68.4215
56.8659
70.0643
40.369
61.2569
47.2407
62.2157
3.8309
41.1114
8.52227
32.1244
59.4111
36.4795
52.775
23.0681
51.7923
28.9186
42.6745
13.5397
13.546
16.6959
15.1785
13.3583
13.2836
15.4043
14.3905
7.97818
3.95884
0.659318
17.3697
44.7633
5.41432
34.8748
9.96914
32.2486
0.566174
25.3054
49.8758
44.2643
50.3097
45.4556
46.1413
41.614
38.246
38.4877
18.9631
11.2049
5.97483
-0.900763
25.5804
23.7038
3.00106
11.9778
15.3467
17.0221
-2.64035
7.71501
18.7063
12.9883
8.04804
-0.407234
-7.40154
2.28919
5.93534
4.87923
-0.0779073
-0.610572
-1.7159
-1.67643
-1.33302
-0.469276
-4.79179
-5.96568
-5.08516
-4.11605
-2.86784
-11.4643
-3.59506
-17.7369
0.962274
-1.02682
-1.13534
-7.17262
-19.7558
-20.5668
-22.9996
-21.791
-12.7658
-17.9194
-16.3685
-18.8741
-14.1474
-10.055
-7.48672
-5.92239
-25.946
-37.3241
-28.3452
-39.8766
-12.9582
-20.2036
-14.476
-23.9769
-7.91187
-30.2045
-35.7737
-27.8772
-28.5983
-15.2328
-26.3817
-18.1657
-24.186
-0.322783
-5.04504
-0.356495
-12.0981
-34.0365
-31.7467
-35.4209
-32.5988
-22.2474
-24.9472
-26.9514
-27.0273