# vtk DataFile Version 3.0
Gravity inversion using rectangular prisms
ASCII
DATASET UNSTRUCTURED_GRID

POINTS	3015	double
0	0	0
0	0	200
0	0	400
0	0	600
0	0	800
0	0	1000
0	200	0
0	200	200
0	200	400
0	200	600
0	200	800
0	200	1000
0	400	0
0	400	200
0	400	400
0	400	600
0	400	800
0	400	1000
0	600	0
0	600	200
0	600	400
0	600	600
0	600	800
0	600	1000
0	800	0
0	800	200
0	800	400
0	800	600
0	800	800
0	800	1000
0	1000	0
0	1000	200
0	1000	400
0	1000	600
0	1000	800
0	1000	1000
0	1200	0
0	1200	200
0	1200	400
0	1200	600
0	1200	800
0	1200	1000
0	1400	0
0	1400	200
0	1400	400
0	1400	600
0	1400	800
0	1400	1000
0	1600	0
0	1600	200
0	1600	400
0	1600	600
0	1600	800
0	1600	1000
0	1800	0
0	1800	200
0	1800	400
0	1800	600
0	1800	800
0	1800	1000
0	2000	0
0	2000	200
0	2000	400
0	2000	600
0	2000	800
0	2000	1000
200	0	0
200	0	200
200	0	400
200	0	600
200	0	800
200	0	1000
200	200	0
200	200	200
200	200	400
200	200	600
200	200	800
200	200	1000
200	400	0
200	400	200
200	400	400
200	400	600
200	400	800
200	400	1000
200	600	0
200	600	200
200	600	400
200	600	600
200	600	800
200	600	1000
200	800	0
200	800	200
200	800	400
200	800	600
200	800	800
200	800	1000
200	1000	0
200	1000	200
200	1000	400
200	1000	600
200	1000	800
200	1000	1000
200	1200	0
200	1200	200
200	1200	400
200	1200	600
200	1200	800
200	1200	1000
200	1400	0
200	1400	200
200	1400	400
200	1400	600
200	1400	800
200	1400	1000
200	1600	0
200	1600	200
200	1600	400
200	1600	600
200	1600	800
200	1600	1000
200	1800	0
200	1800	200
200	1800	400
200	1800	600
200	1800	800
200	1800	1000
200	2000	0
200	2000	200
200	2000	400
200	2000	600
200	2000	800
200	2000	1000
400	0	0
400	0	200
400	0	400
400	0	600
400	0	800
400	0	1000
400	200	0
400	200	200
400	200	400
400	200	600
400	200	800
400	200	1000
400	400	0
400	400	200
400	400	300
400	400	400
400	400	500
400	400	600
400	400	800
400	400	1000
400	500	200
400	500	300
400	500	400
400	500	500
400	500	600
400	600	0
400	600	200
400	600	300
400	600	400
400	600	500
400	600	600
400	600	800
400	600	1000
400	700	200
400	700	300
400	700	400
400	700	500
400	700	600
400	800	0
400	800	200
400	800	300
400	800	400
400	800	500
400	800	600
400	800	800
400	800	1000
400	1000	0
400	1000	200
400	1000	400
400	1000	600
400	1000	800
400	1000	1000
400	1200	0
400	1200	200
400	1200	400
400	1200	600
400	1200	800
400	1200	1000
400	1400	0
400	1400	200
400	1400	400
400	1400	600
400	1400	800
400	1400	1000
400	1600	0
400	1600	200
400	1600	400
400	1600	600
400	1600	800
400	1600	1000
400	1800	0
400	1800	200
400	1800	400
400	1800	600
400	1800	800
400	1800	1000
400	2000	0
400	2000	200
400	2000	400
400	2000	600
400	2000	800
400	2000	1000
500	400	200
500	400	300
500	400	400
500	400	500
500	400	600
500	500	200
500	500	300
500	500	400
500	500	500
500	500	600
500	600	200
500	600	300
500	600	400
500	600	500
500	600	600
500	700	200
500	700	300
500	700	400
500	700	500
500	700	600
500	800	200
500	800	300
500	800	400
500	800	500
500	800	600
600	0	0
600	0	200
600	0	400
600	0	600
600	0	800
600	0	1000
600	200	0
600	200	200
600	200	400
600	200	500
600	200	600
600	200	800
600	200	1000
600	300	400
600	300	500
600	300	600
600	400	0
600	400	100
600	400	200
600	400	300
600	400	400
600	400	500
600	400	600
600	400	800
600	400	1000
600	500	0
600	500	100
600	500	200
600	500	250
600	500	300
600	500	400
600	500	500
600	500	600
600	550	200
600	550	250
600	550	300
600	600	0
600	600	100
600	600	200
600	600	250
600	600	300
600	600	400
600	600	500
600	600	600
600	600	700
600	600	800
600	600	1000
600	700	0
600	700	100
600	700	200
600	700	300
600	700	400
600	700	500
600	700	600
600	700	700
600	700	800
600	800	0
600	800	100
600	800	200
600	800	300
600	800	400
600	800	500
600	800	600
600	800	700
600	800	800
600	800	1000
600	900	200
600	900	300
600	900	400
600	900	500
600	900	600
600	1000	0
600	1000	200
600	1000	300
600	1000	400
600	1000	500
600	1000	600
600	1000	800
600	1000	1000
600	1200	0
600	1200	200
600	1200	300
600	1200	400
600	1200	500
600	1200	600
600	1200	800
600	1200	1000
600	1300	200
600	1300	300
600	1300	400
600	1300	500
600	1300	600
600	1400	0
600	1400	200
600	1400	300
600	1400	400
600	1400	500
600	1400	600
600	1400	800
600	1400	1000
600	1500	200
600	1500	300
600	1500	400
600	1500	500
600	1500	600
600	1600	0
600	1600	200
600	1600	300
600	1600	400
600	1600	500
600	1600	600
600	1600	800
600	1600	1000
600	1800	0
600	1800	200
600	1800	400
600	1800	600
600	1800	800
600	1800	1000
600	2000	0
600	2000	200
600	2000	400
600	2000	600
600	2000	800
600	2000	1000
650	500	200
650	500	250
650	500	300
650	550	200
650	550	250
650	550	300
650	600	200
650	600	250
650	600	300
700	200	400
700	200	500
700	200	600
700	300	400
700	300	500
700	300	600
700	400	0
700	400	100
700	400	200
700	400	300
700	400	400
700	400	500
700	400	600
700	500	0
700	500	100
700	500	200
700	500	250
700	500	300
700	500	400
700	500	500
700	500	600
700	550	200
700	550	250
700	550	300
700	600	0
700	600	100
700	600	200
700	600	250
700	600	300
700	600	400
700	600	500
700	600	600
700	600	700
700	600	800
700	650	200
700	650	250
700	650	300
700	700	0
700	700	100
700	700	200
700	700	250
700	700	300
700	700	400
700	700	500
700	700	600
700	700	700
700	700	800
700	800	0
700	800	100
700	800	200
700	800	300
700	800	400
700	800	500
700	800	600
700	800	700
700	800	800
700	900	200
700	900	300
700	900	400
700	900	500
700	900	600
700	1000	200
700	1000	300
700	1000	400
700	1000	500
700	1000	600
700	1200	200
700	1200	300
700	1200	400
700	1200	500
700	1200	600
700	1300	200
700	1300	300
700	1300	400
700	1300	500
700	1300	600
700	1400	200
700	1400	300
700	1400	400
700	1400	500
700	1400	600
700	1500	200
700	1500	300
700	1500	400
700	1500	500
700	1500	600
700	1600	200
700	1600	300
700	1600	400
700	1600	500
700	1600	600
750	500	200
750	500	250
750	500	300
750	550	200
750	550	250
750	550	300
750	600	200
750	600	250
750	600	300
750	650	200
750	650	250
750	650	300
750	700	200
750	700	250
750	700	300
800	0	0
800	0	200
800	0	400
800	0	600
800	0	800
800	0	1000
800	200	0
800	200	200
800	200	400
800	200	500
800	200	600
800	200	800
800	200	1000
800	300	400
800	300	500
800	300	600
800	400	0
800	400	100
800	400	200
800	400	300
800	400	400
800	400	500
800	400	600
800	400	800
800	400	1000
800	500	0
800	500	100
800	500	200
800	500	250
800	500	300
800	500	400
800	500	500
800	500	600
800	550	200
800	550	250
800	550	300
800	600	0
800	600	100
800	600	200
800	600	250
800	600	300
800	600	400
800	600	500
800	600	600
800	600	700
800	600	800
800	600	1000
800	650	200
800	650	250
800	650	300
800	700	0
800	700	100
800	700	200
800	700	250
800	700	300
800	700	400
800	700	500
800	700	600
800	700	700
800	700	800
800	800	0
800	800	100
800	800	200
800	800	300
800	800	400
800	800	500
800	800	600
800	800	700
800	800	800
800	800	1000
800	900	0
800	900	100
800	900	200
800	900	300
800	900	400
800	900	500
800	900	600
800	1000	0
800	1000	100
800	1000	200
800	1000	300
800	1000	400
800	1000	500
800	1000	600
800	1000	800
800	1000	1000
800	1100	200
800	1100	300
800	1100	400
800	1100	500
800	1100	600
800	1200	0
800	1200	100
800	1200	200
800	1200	300
800	1200	400
800	1200	500
800	1200	600
800	1200	700
800	1200	800
800	1200	1000
800	1300	0
800	1300	100
800	1300	200
800	1300	250
800	1300	300
800	1300	350
800	1300	400
800	1300	450
800	1300	500
800	1300	600
800	1300	700
800	1300	800
800	1350	200
800	1350	250
800	1350	300
800	1350	350
800	1350	400
800	1350	450
800	1350	500
800	1400	0
800	1400	100
800	1400	200
800	1400	250
800	1400	300
800	1400	350
800	1400	400
800	1400	450
800	1400	500
800	1400	600
800	1400	700
800	1400	800
800	1400	1000
800	1450	200
800	1450	250
800	1450	300
800	1450	350
800	1450	400
800	1450	450
800	1450	500
800	1500	0
800	1500	100
800	1500	200
800	1500	250
800	1500	300
800	1500	350
800	1500	400
800	1500	450
800	1500	500
800	1500	600
800	1500	700
800	1500	800
800	1600	0
800	1600	100
800	1600	200
800	1600	300
800	1600	400
800	1600	500
800	1600	600
800	1600	700
800	1600	800
800	1600	1000
800	1700	200
800	1700	300
800	1700	400
800	1700	500
800	1700	600
800	1800	0
800	1800	200
800	1800	300
800	1800	400
800	1800	500
800	1800	600
800	1800	800
800	1800	1000
800	2000	0
800	2000	200
800	2000	400
800	2000	600
800	2000	800
800	2000	1000
850	500	200
850	500	250
850	500	300
850	550	200
850	550	250
850	550	300
850	600	200
850	600	250
850	600	300
850	650	200
850	650	250
850	650	300
850	700	200
850	700	250
850	700	300
850	1300	200
850	1300	250
850	1300	300
850	1300	350
850	1300	400
850	1300	450
850	1300	500
850	1350	200
850	1350	250
850	1350	300
850	1350	350
850	1350	400
850	1350	450
850	1350	500
850	1400	200
850	1400	250
850	1400	300
850	1400	350
850	1400	400
850	1400	450
850	1400	500
850	1450	200
850	1450	250
850	1450	300
850	1450	350
850	1450	400
850	1450	450
850	1450	500
850	1500	200
850	1500	250
850	1500	300
850	1500	350
850	1500	400
850	1500	450
850	1500	500
900	400	0
900	400	100
900	400	200
900	400	300
900	400	400
900	400	500
900	400	600
900	500	0
900	500	100
900	500	200
900	500	250
900	500	300
900	500	400
900	500	500
900	500	600
900	550	200
900	550	250
900	550	300
900	600	0
900	600	100
900	600	200
900	600	250
900	600	300
900	600	400
900	600	500
900	600	600
900	650	200
900	650	250
900	650	300
900	700	0
900	700	100
900	700	200
900	700	250
900	700	300
900	700	400
900	700	500
900	700	600
900	800	0
900	800	100
900	800	200
900	800	300
900	800	400
900	800	500
900	800	600
900	900	0
900	900	100
900	900	200
900	900	300
900	900	400
900	900	500
900	900	600
900	1000	0
900	1000	100
900	1000	200
900	1000	300
900	1000	400
900	1000	500
900	1000	600
900	1100	200
900	1100	300
900	1100	400
900	1100	500
900	1100	600
900	1200	0
900	1200	100
900	1200	200
900	1200	250
900	1200	300
900	1200	350
900	1200	400
900	1200	450
900	1200	500
900	1200	600
900	1200	700
900	1200	800
900	1250	200
900	1250	250
900	1250	300
900	1250	350
900	1250	400
900	1250	450
900	1250	500
900	1300	0
900	1300	100
900	1300	150
900	1300	200
900	1300	250
900	1300	300
900	1300	350
900	1300	400
900	1300	450
900	1300	500
900	1300	550
900	1300	600
900	1300	700
900	1300	800
900	1350	100
900	1350	150
900	1350	200
900	1350	250
900	1350	300
900	1350	350
900	1350	400
900	1350	450
900	1350	500
[...]
CELL_DATA	2117
SCALARS model double 1
LOOKUP_TABLE table0
0.113954
2.84462
-16.8708
8.92159
33.8089
0.503197
0.41253
4.718
13.6189
29.5916
1.2777
-12.62
9.57587
20.9314
31.0428
1.02312
-6.924
11.348
26.6204
34.2151
2.20272
-5.6507
10.9736
29.3003
36.0429
1.5916
-2.4139
16.2452
30.7286
36.1994
1.40392
-3.92459
17.6445
29.7058
35.5856
1.65924
-20.2892
13.9565
26.3608
36.1225
0.689322
0.305021
9.6174
23.4325
41.3062
1.0895
-18.4522
-11.2852
27.446
54.5617
0.113664
3.59404
-15.162
0.0407735
22.8167
1.60463
-1.26692
-16.4699
-7.61163
9.34437
2.07867
2.88922
1.80393
0.182131
6.2066
1.83677
24.7756
12.4846
5.79454
5.5075
4.8219
-15.6044
-5.83547
-1.04928
1.0669
4.5729
-0.593698
-14.7434
-10.1467
-4.91003
2.77063
13.0875
-11.1508
-13.6108
-7.2682
0.399571
18.2026
-10.5095
-12.2008
-2.25655
0.147783
12.0346
-12.858
-2.57957
14.2446
1.01332
-2.62819
9.45716
28.3106
44.7594
-0.342267
10.7298
-2.74218
8.15196
24.8528
2.0744
0.719979
1.45857
-0.915622
5.65417
6.68642
28.9383
7.3285
48.7958
27.3435
45.3418
31.0254
91.4836
66.9208
-8.57807
-15.7306
9.09849
-3.6415
13.8315
0.75962
40.4246
17.5408
15.3729
0.213595
15.1927
50.3529
40.0106
48.3512
39.5563
129.576
93.2863
149.694
98.3285
20.8609
4.82867
21.6868
5.80236
58.4341
28.8566
60.4924
29.8535
24.3827
-3.5231
12.1854
54.0329
41.6356
6.70119
-14.4405
8.82382
10.2494
2.14239
-16.9707
-27.3251
4.08798
22.6474
0.158232
-26.483
-32.5924
2.65449
16.529
2.16582
-23.8524
-25.0778
2.25172
-0.880183
-7.50449
-7.93533
-0.795319
2.08918
-23.905
31.6264
38.7306
41.5834
-0.117519
3.8329
-1.01783
20.7748
34.1423
1.10465
19.0863
-14.2373
-7.38352
3.21506
-1.10694
-3.50503
2.22056
16.0842
9.01487
11.8417
8.67172
5.75519
73.0957
26.1944
111.967
5.54383
67.402
27.1914
70.6138
70.8448
53.8209
78.2391
71.0339
95.4368
86.3378
86.1413
79.849
104.222
95.9321
97.9349
80.5973
68.0769
89.7487
84.8135
107.829
100.73
90.2028
86.9029
107.665
101.958
109.386
34.2168
16.2609
66.1726
35.5352
47.6312
25.9141
78.2639
43.5912
31.0646
-1.67122
31.3556
175.289
36.6745
244.622
61.4289
130.428
55.9346
180.342
171.615
131.98
196.637
139.001
122.618
112.817
132.616
120.684
122.065
113.33
131.584
120.582
140.881
184.013
145.38
87.2797
47.7393
89.4575
48.1938
97.2366
53.75
97.4115
52.5451
16.5043
-7.06996
15.4279
-9.75722
18.0337
-9.19256
15.6157
-12.9738
-10.1607
38.5453
155.536
108.907
53.3744
56.7996
142.625
114.545
55.687
64.1682
70.9185
36.4542
39.8773
16.5911
77.6817
39.9316
46.3011
19.8985
13.5908
-25.6012
18.2846
15.2939
14.9665
-18.1493
-41.3488
12.3994
29.9789
3.98542
37.5177
5.38676
34.8627
8.64416
43.5769
9.4332
-15.3132
-30.8422
-19.3823
-37.1774
-10.4947
-27.2282
-15.1935
-33.8399
-30.0618
-46.8312
6.0303
54.2514
9.98484
69.234
10.3672
52.1409
11.2319
57.9756
8.41364
-21.005
-40.4295
-23.8886
-41.3671
-18.2195
-37.8094
-22.5668
-39.6192
-26.1955
-37.1493
3.75981
21.6854
6.29835
-8.00784
-8.81079
1.67722
12.0686
41.0999
42.0437
38.6304
0.444289
-4.59392
5.29622
35.2801
43.2891
0.623282
19.1485
21.372
12.0235
5.53563
8.67439
67.3776
30.4252
53.3185
1.15788
0.759718
7.9401
114.418
80.7137
74.1584
88.4134
86.3448
104.237
99.4488
86.2636
84.1208
99.2472
93.9762
104.641
87.4212
79.2275
85.8872
80.8327
94.3964
85.8306
86.6742
74.6238
88.553
73.0447
90.0695
51.812
26.3793
73.7106
37.5339
46.2175
15.6642
52.0162
15.8151
13.3893
-17.4339
45.4884
103.084
55.8723
120.776
24.8795
81.5717
33.7404
56.4094
117.249
109.285
125.402
115.204
109.118
100.882
114.426
104.488
123.589
143.207
120.646
110.753
86.1012
86.9147
70.6676
84.4086
42.38
80.1092
38.3038
48.3955
11.9023
38.064
4.61526
5.69424
-34.4338
48.8958
103.551
40.1269
23.4197
40.441
65.0961
38.7438
35.0576
110.067
93.3834
52.7848
54.2913
63.9294
49.5269
33.1642
27.0948
61.562
26.1863
35.9447
9.78383
23.9179
-4.42683
9.35682
-13.4715
-18.2299
-49.9832
30.3668
25.3638
25.4234
28.0897
13.3029
19.4035
12.7145
21.2393
8.08888
13.3808
-6.08818
-1.0333
-18.3052
-1.63924
-20.8713
-7.57985
-25.8952
-38.3583
-59.8482
21.15
47.7446
16.1719
49.8193
34.262
26.731
27.9844
38.6847
38.3504
36.5687
37.4129
42.6504
41.1894
40.4949
40.2899
30.1369
9.73895
31.7693
24.8223
31.3085
23.3243
33.3228
27.3608
32.488
25.7659
17.5321
9.65795
15.1004
6.6045
20.2091
12.079
17.8618
9.24976
36.4333
31.9571
35.8706
30.8167
37.6832
32.7026
37.9007
32.412
25.7862
17.8753
24.0964
15.8985
25.7578
17.0331
25.0444
16.1257
436.659
431.058
435.745
429.535
439.136
433.07
438.322
431.784
423.759
415.116
421.746
412.898
425.198
415.943
423.571
414.235
-8.68367
-26.5036
1.18239
-7.76421
-2.11063
-10.9554
3.17116
-6.27285
0.207298
-9.06473
-31.8985
8.50752
-1.8751
6.52725
-3.63868
6.9513
-3.98385
6.07468
-4.66399
-29.145
405.497
395.274
403.366
393.451
405.744
395.018
404.206
393.828
-16.0625
-26.2405
-17.9126
-27.5752
-16.7054
-27.2434
-17.9159
-27.9524
-42.7825
-56.3306
-47.117
-58.6146
-46.5139
-60.8455
-48.1668
-60.828
-59.0156
15.0651
43.7655
8.26296
56.0581
22.0052
34.5565
36.2976
34.5609
35.8094
38.2563
38.9009
38.1414
38.15
20.0856
50.8929
30.4885
21.6223
29.2801
19.4463
31.3533
23.8548
29.9749
21.4174
12.5161
3.46354
9.47796
0.0217032
15.2079
6.17523
12.0014
2.68932
40.022
4.19156
434.273
427.396
432.278
424.483
436.738
429.679
434.523
426.67
419.118
410.116
415.714
406.681
421.129
411.769
417.773
408.508
29.5409
19.8541
26.2887
14.6989
31.2944
21.6802
27.5775
16.2203
10.0556
0.841068
4.72217
-3.83669
11.9469
2.66285
6.45103
-2.07143
-5.40894
-14.0648
-8.812
-17.0986
-2.91229
-11.9147
-6.25195
-14.8051
-35.7191
-21.8294
-37.9245
400.751
391.238
397.644
388.685
402.002
392.083
399.162
389.859
-19.8825
-28.9384
-21.8803
-30.217
-19.4094
-28.832
-21.0737
-29.7575
-7.74234
-15.8353
-11.4342
-18.4619
-6.11809
-14.4927
-9.79098
-17.0467
-36.609
-49.0822
-58.1625
-47.7405
-53.8846
-48.7846
-59.0644
-47.0815
-54.3133
-45.0693
11.3358
28.2245
-8.60476
-2.36797
-19.3604
22.2246
-10.9075
-10.4671
-21.4829
-26.9246
-35.7796
-22.678
-23.606
-26.4882
-34.8908
-22.9476
-23.8204
-11.6083
-14.4236
6.02471
-7.18931
26.5606
35.2275
33.5515
0.226787
-6.33612
39.801
-2.66928
-3.92857
-36.0027
56.2432
17.2627
4.64592
34.2316
45.9112
45.4324
0.224296
13.0685
5.34372
-5.94167
-8.0295
-0.617254
112.583
74.5389
120.272
53.9573
74.6932
30.6136
19.9505
-21.0046
25.9521
-7.42143
10.7586
-20.5211
-14.5232
-41.346
-48.6281
-66.1974
-39.0049
-47.7311
5.02553
87.8835
20.637
49.4555
-0.732577
-18.3109
14.1223
-16.0457
68.479
23.8433
22.321
-0.457349
-40.2763
-65.7408
-68.265
-84.51
-8.67704
-33.8123
-22.8894
-42.9808
-78.2694
-85.8863
-90.4765
-94.0867
-66.8923
-73.1586
33.362
41.8027
46.3022
-15.4574
32.1051
1.09294
46.6417
-24.0117
9.08169
-10.4187
-2.41649
-12.0792
-53.5962
-74.6287
-33.7603
-51.5127
-28.6812
-46.4612
-28.0457
-45.3125
-83.8709
-89.9597
-66.1038
-77.5697
-77.0604
-83.0736
47.9858
21.0337
45.8943
23.8038
47.2405
14.7639
43.7554
21.2285
4.82701
-7.61277
13.4269
-0.732773
-8.24491
-27.7293
7.964
-9.82998
-23.81
-41.6391
-18.4749
-37.455
-46.2547
-62.5896
-30.0286
-49.4539
-69.4474
-79.8592
31.2969
24.0601
44.933
46.9959
44.7058
46.1782
44.1102
51.8596
48.0123
51.794
47.5312
54.7588
32.8001
47.4397
54.6788
49.9958
53.3417
49.2823
52.7344
49.9358
50.7957
49.1307
38.7633
32.925
39.9396
33.6309
39.562
32.573
41.6463
34.2934
24.9546
15.2887
25.3598
15.5866
23.4298
12.773
24.9994
14.326
441.387
434.543
440.747
433.56
443.184
435.453
442.7
434.798
425.853
415.913
424.684
414.786
425.94
415.251
425.26
414.738
39.8515
31.5494
42.6017
34.1934
39.1476
29.7343
42.3364
33.1535
21.2359
9.6469
23.9196
12.4114
18.4631
6.12306
22.1182
9.9515
444.139
435.621
443.779
435.299
444.007
434.937
443.824
434.957
425.363
413.967
425.182
414.065
424.056
412.099
424.346
412.755
4.46193
-6.99177
4.8112
-6.48445
1.21865
-10.6923
2.83597
-8.96721
-34.3654
405.122
393.906
404.243
393.408
403.849
392.184
403.657
392.398
-18.0172
-28.8421
-18.5299
-28.8781
-19.8974
-30.9247
-19.6963
-30.2794
-2.55416
-14.8332
0.284929
-11.9395
-6.58214
-19.1156
-2.66845
-15.1938
-40.3855
402.008
389.968
402.486
390.869
399.709
387.398
400.791
388.912
-22.2162
-33.3502
-21.3299
-32.0555
-24.8132
-35.9481
-23.3212
-34.0819
-52.2569
-66.5001
-50.5405
-63.7017
-58.2621
-71.7722
-53.3983
-66.389
-68.2712
24.7245
42.9173
42.2514
39.8091
40.6236
47.1159
45.1863
41.7436
42.7429
23.4904
55.7912
31.2171
48.6511
46.8141
43.9238
44.168
47.6571
47.0302
44.3722
44.6009
33.1412
50.8166
439.048
431.532
436.546
428.448
440.913
432.883
438.165
429.772
422.534
412.718
419.271
409.679
423.381
413.074
420.253
410.293
33.0494
23.378
28.8079
17.6351
34.4701
24.7179
29.8458
18.8089
13.5461
4.07553
7.9317
-0.668086
14.7123
4.99244
9.06453
0.301594
442.001
433.546
439.15
430.476
442.194
433.421
439.381
430.462
423.571
412.8
420.619
410.298
423.048
411.885
420.301
409.661
35.3305
25.5023
30.5211
19.574
35.4254
25.5785
30.5029
19.7259
15.308
5.32629
9.72435
0.751791
15.2213
5.0059
9.77474
0.594385
402.504
392.178
399.979
390.325
402.41
391.704
400.227
390.241
-19.499
-29.2348
-20.786
-29.7701
-20.1229
-30.1021
-21.012
-30.2337
-4.96771
-13.6449
-8.57588
-16.0832
-4.34362
-13.3197
-7.83983
-15.6051
-35.8176
401.727
390.695
399.891
389.619
400.478
389.207
398.97
388.485
-21.2318
-31.3671
-21.7289
-31.1071
-22.7541
-32.9404
-22.8943
-32.3286
-4.29467
-13.5363
-7.63752
-15.6418
-4.85582
-14.2991
-8.01926
-16.2135
-35.7351
-49.3248
-60.2833
-46.8977
-54.797
-50.42
-61.4239
-47.1748
-55.1937
-48.9202
14.9239
17.6751
-11.3169
-22.4508
-22.1881
22.4653
-8.46191
-1.60187
-15.9688
-25.6779
-34.2093
-22.6177
-23.9052
-24.3477
-33.8191
-20.8007
-23.7371
-14.5404
-16.9968
7.26939
7.36915
19.479
28.6252
29.4776
0.372933
-9.63563
52.6512
-13.3262
3.34323
-9.03666
32.9998
0.719602
3.38161
36.2359
38.0224
38.5183
1.24279
31.6152
-5.39612
-11.6578
-26.7847
-43.8893
-20.0209
-26.5313
-52.4321
-64.3836
-30.9255
-23.1002
5.00437
-18.9907
3.41834
-95.3224
6.91929
17.9639
6.47323
-130.952
-9.58592
-37.0142
-50.7358
-56.8669
-74.3606
-78.7899
-76.0039
-81.0424
-98.4842
-101.471
-104.392
-42.0847
-78.7382
-88.7487
-95.2396
-109.797
-113.91
-91.3784
-100.422
-111.115
-117.554
-148.295
-63.3273
-77.1646
-107.931
-108.953
-96.7725
-102.132
-142.813
-135.09
-88.8369
-71.9817
-0.928984
-56.768
-79.9673
-67.6568
-89.5242
-81.4289
-102.953
-82.5396
-108.169
8.39539
-129.501
-1.23641
-85.8062
-111.267
-87.8894
-115.633
-79.3072
-109.422
-85.2828
-114.502
1.00276
-145.516
-156.46
-149.896
-156.203
-154.736
-201.085
-188.449
-185.954
-181.581
-139.428
-130.359
-144.668
-134.756
-170.389
-154.177
-167.726
-153.557
-122.676
-98.7956
22.6877
-60.6295
33.9223
6.47198
5.70984
-56.4022
11.4765
63.3486
-105.273
-122.45
-45.0318
-75.9694
-109.741
-133.327
-20.3297
-72.344
-124.916
-122.694
-92.1203
-100.516
-137.824
-134.969
-95.8719
-106.572
-111.415
-99.6956
39.6814
17.5826
48.9195
13.3942
21.9347
47.8697
36.3029
-0.377018
-10.3568
-38.4274
2.87894
-15.8092
9.30416
-31.0832
2.17434
-12.9622
-60.5598
-76.7988
-37.5403
-57.4609
-59.3523
-78.5613
-35.9119
-57.4455
-79.3642
-84.6138
42.0979
27.8719
37.575
50.4439
48.5162
48.9051
48.1178
50.5062
46.2405
49.9706
46.5767
46.6982
9.53671
31.327
47.1634
42.2246
46.982
43.0946
40.0155
36.5347
38.3183
37.4907
37.0332
27.0919
40.6382
31.1237
33.5711
23.8099
37.6189
28.2382
15.2723
2.46299
19.6758
7.11054
11.9489
-1.00673
16.7838
4.11435
442.798
433.393
442.922
433.763
440.583
431.057
441.099
431.743
422.089
409.759
422.783
410.872
419.588
407.085
420.582
408.505
29.2107
20.3433
33.5344
24.8262
24.8202
17.4796
29.0162
21.4782
8.92402
-3.91071
13.7609
1.24563
6.77431
-5.85582
11.0473
-1.18625
437.373
428.07
438.218
428.95
433.453
424.725
434.425
425.566
416.704
404.234
417.816
405.752
413.667
401.385
414.642
402.742
-10.5604
-23.2253
-5.81386
-18.4988
-14.1589
-26.843
-8.9123
-21.6126
-44.7278
397.088
384.631
398.655
386.636
394.298
381.837
396.182
384.163
-27.5114
-38.5344
-25.5402
-36.2152
-30.1211
-40.9134
-27.8418
-38.2985
-17.054
-29.679
-11.7125
-24.3002
-18.9611
-31.4959
-13.9782
-26.3547
-44.7158
391.5
379.184
393.486
381.624
388.851
376.831
390.692
379.157
-32.4537
-42.8907
-30.0705
-40.1653
-34.3257
-44.2731
-32.0638
-41.6402
-62.2031
-74.6571
-55.4125
-67.601
-61.7992
-73.1773
-55.0419
-65.8916
-65.7343
35.9601
47.418
46.6803
45.4446
44.5297
50.0525
45.8999
48.2221
44.0316
24.0288
37.8067
47.1077
48.5432
43.0967
47.3145
41.8602
39.3371
37.8167
40.4078
37.5143
24.9702
37.6152
441.569
432.486
438.886
429.693
440.096
430.731
437.636
428.143
421.799
410.343
419.264
408.372
419.838
408.216
417.502
406.445
34.7534
24.8802
29.6731
19.1436
33.4091
23.411
28.2863
17.8561
14.3875
3.98987
9.11918
-0.234988
12.7938
2.27409
7.73505
-1.7579
437.559
428.152
435.436
425.791
434.001
424.854
432.266
422.693
417.213
405.567
415.034
403.916
414.018
402.485
411.921
400.849
31.3464
21.1951
26.6117
15.9584
28.5158
18.3062
24.603
13.5162
10.4713
-0.108218
5.65694
-3.9545
7.49612
-3.08964
2.94948
-6.77009
398.71
387.31
397.482
386.883
396.487
385.093
395.463
384.872
-24.5983
-34.7132
-24.4465
-33.8179
-26.654
-36.5598
-26.3023
-35.4735
-6.04
-15.5935
-9.01787
-17.3243
-7.8323
-17.3816
-10.6365
-18.9537
-36.4516
393.89
382.655
392.969
382.53
391.016
380.114
390.078
379.957
-28.7944
-38.3383
-28.3592
-37.176
-30.8756
-39.89
-30.4885
-38.7802
-10.188
-19.5997
-12.8474
-21.0553
-13.0334
-22.1559
-15.5895
-23.5489
-37.6036
-51.403
-61.7042
-47.6366
-55.0454
-51.2719
-60.0771
-47.6646
-53.5956
-44.4123
14.5883
25.4928
-5.86286
18.9031
-9.65655
28.0649
-4.94537
23.877
-7.45758
-23.6698
-34.0424
-19.2514
-23.7916
-24.2856
-34.9253
-19.2528
-24.3803
-11.1754
-13.7183
3.53172
21.6859
23.3824
27.8603
29.8783
0.373609
8.87067
11.6697
21.1679
31.8559
1.29128
33.5679
-23.4774
-37.0778
-23.1989
1.43994
11.5156
4.16009
-103.348
-0.539047
55.1512
2.72115
13.9282
-33.3117
-79.7915
-127.129
-139.813
6.23075
-54.3068
-49.8807
-94.4237
-103.115
-108.677
-142.962
-137.66
-87.5391
-97.4516
-115.434
-118.728
-87.3068
-65.9293
-0.263137
-70.7568
-100.736
-80.0481
-106.786
-57.0379
-84.6795
-69.6429
-91.3723
-6.07325
-133.523
1.99994
-35.4659
4.20625
-34.8256
-171.445
-171.268
-152.934
-156.757
-81.3132
-112.764
-58.232
-92.4994
-163.263
-151.697
-153.779
-146.084
-126.09
-126.11
-111.503
-116.404
-108.021
-85.1701
-0.253818
-69.7355
-102.371
24.4071
-39.4422
11.9817
-42.3631
69.3163
8.67573
-118.721
-123.592
-74.8882
-93.437
-77.168
-93.2698
-39.0033
-65.8305
-85.7366
-79.2745
3.12519
117.559
18.2341
-4.70266
-2.16672
45.3235
4.13754
41.6168
44.056
-2.30004
19.069
6.30875
99.3024
38.9456
79.6144
40.3721
-40.3001
-66.0644
-22.1352
-47.6774
-11.368
-43.1448
-0.720498
-30.3912
-51.4359
-61.5739
28.4681
-0.376834
28.7388
33.409
30.9947
31.2189
31.9418
28.7475
27.8449
27.4851
28.7143
12.4444
39.0522
9.93238
61.4521
22.1694
16.387
25.4198
19.0677
23.7733
18.1866
24.4367
18.3704
6.13075
-6.52326
9.1271
-2.91555
7.35991
-5.83573
8.2867
-3.84029
429.593
421.471
430.39
421.934
426.576
418.553
426.78
418.227
410.738
398.69
411.256
399.59
407.889
396.085
407.603
396.245
47.7664
25.7966
24.874
16.6504
23.795
14.5796
25.6692
14.9844
23.1157
11.3467
6.1573
-5.21231
3.9809
-6.8931
3.85985
-7.07863
0.270505
-9.99578
-19.6919
-32.1338
-15.5322
-27.6129
-19.222
-31.5267
-16.2996
-27.9639
-38.6712
386.488
374.926
387.921
376.901
384.35
373.45
385.132
374.853
-35.5611
-44.8676
-33.6504
-42.5361
-35.9831
-44.4728
-34.641
-42.645
-3.32469
-27.2173
-16.3177
-26.4306
-17.2346
-26.5516
-17.1768
-26.022
-19.1906
-27.1403
-29.8596
-55.5536
-65.8639
-50.9273
-59.9391
-43.1305
-51.9753
-42.1325
-48.7106
-44.7874
21.1416
31.3371
32.313
33.1025
32.547
27.7646
29.03
28.5758
29.1949
20.5361
27.1168
9.95981
58.4715
4.38574
52.8438
430.011
421.113
428.554
419.054
426.217
417.064
424.857
414.982
410.398
399.074
408.271
397.327
406.314
395.269
404.035
393.286
25.2056
14.9546
22.1016
10.6164
22.2569
11.4787
19.6276
7.5063
3.99484
-6.5763
-0.302847
-10.1322
0.102215
-10.4666
-3.99806
-13.9537
22.8935
12.6929
21.8933
10.6266
21.5296
8.69338
20.4288
6.42754
1.66423
-9.04485
-0.982427
-11.6447
-2.84875
-12.9492
-5.83707
-15.9946
43.0717
2.65927
387.976
377.602
386.887
377.278
384.733
375.122
383.363
374.496
-32.7331
-41.0349
-32.5353
-40.1159
-34.1721
-41.5633
-34.3029
-40.974
-16.2677
-24.9262
-18.7765
-26.3229
-19.7627
-27.7445
-22.2882
-29.216
-38.3543
-18.8286
-27.4225
-20.9281
-28.7919
-21.5714
-28.7815
-24.1824
-30.7044
-34.3341
-24.6093
-37.5931
-48.8348
-55.3619
-46.2669
-49.8126
-42.8086
-46.3482
-42.0481
-42.4326
-28.2107
6.63379
33.7348
-3.89007
29.3836
-6.51588
47.3015
-3.54118
40.8857
-8.82018
-25.8072
-35.9901
-20.6117
-25.2714
-28.4685
-36.2961
-24.0462
-25.8008
-3.95626
-2.77211
2.72017
3.59289
24.7082
30.836
36.1384
-0.24586
10.0014
0.214301
18.4921
37.739
1.14878
9.36766
-12.6917
-15.853
0.00529558
1.19658
38.0086
-22.4893
-38.0742
-25.6163
1.71908
11.1376
-47.0134
43.2559
-23.8031
46.5196
-3.16491
54.6964
16.0468
-76.4798
-85.9903
-59.3465
-73.7338
-29.5091
-39.6481
-12.7214
-26.4295
-39.5787
-32.9395
0.670058
33.1217
-2.2834
-22.4805
-25.1653
0.227403
32.6172
20.1312
-5.02563
-14.0309
0.861381
79.221
40.3193
64.5673
21.5433
62.3163
38.5125
55.0132
19.6964
8.57859
-12.2975
-4.43568
-19.7262
17.9029
6.37141
2.84814
-4.3668
0.710515
-6.97882
3.05881
57.1297
9.46809
55.7537
0.336389
38.4487
4.75786
23.3904
-7.7646
-16.1606
-27.7683
-25.5033
-33.3835
-10.988
-14.894
-21.8489
-22.1176
-1.06306
0.111269
3.35514
5.13627
4.69162
5.46231
17.2956
2.43786
-9.87459
19.5475
37.0469
49.0612
-0.379844
3.78867
10.312
37.0614
58.2418
-0.161641
4.79246
15.5291
26.4098
40.6527
0.090745
10.4206
28.3743
28.4837
33.5225
0.491669
2.90486
52.0315
42.8363
37.589
-0.108992
6.54848
55.6088
55.2218
45.2874
-0.0317116
0.292392
34.9089
51.1803
46.9018
-0.220358
4.53119
17.089
35.9994
41.7785
0.45923
7.21645
8.76066
24.5802
38.638
1.77624
-6.78335
6.39571
28.1
46.8758
2.25014
-23.2242
26.5504
52.5826
68.4583
SCALARS m0 double 1
LOOKUP_TABLE table1
50
50
50
50
50
50
50
50
50
50
50
50
50
50
50
50
50
50
50
50
50
50
50
50
50
50
50
50
50
50
50
50
50
50
50
50
50
50
50
50
50
50
50
50
50
50
50
50
50
50
50
50
50
50
50
50
50
50
50
50
50
50
50
50
50
50
50
50
50
50
50
50
50
50
50
50
50
50
50
50
50
50
50
50
50
50
50
50
50
50
50
50
50
50
50
50
50
50
50
50
50
50
50
50
50
50
50
50
50
50
50
50
50
50
50
50
50
50
50
50
50
50
50
50
50
50
50
50
50
50
50
50
50
50
50
50
50
50
50
50
50
50
50
50
50
50
50
50
50
50
50
50
50
50
50
50
50
50
50
50
50
50
50
50
50
50
50
50
50
50
50
50
50
50
50
50
50
50
50
50
50
50
50
50
50
50
50
50
50
50
50
50
50
50
50
50
50
50
50
50
50
50
50
50
50
50
50
50
50
50
50
50
50
50
50
50
50
50
50
50
50
50
50
50
50
50
50
50
50
50
50
50
50
50
50
50
50
50
50
50
50
50
50
50
50
50
50
50
50
50
50
50
50
50
50
50
50
50
50
50
50
50
50
50
50
50
50
50
50
50
50
50
50
50
50
50
50
50
50
50
50
50
50
50
50
50
50
50
50
50
50
50
50
50
50
50
50
50
50
50
50
50
50
50
50
50
50
50
50
50
50
50
50
50
50
50
50
50
50
50
50
50
50
50
50
50
50
50
50
50
50
50
50
50
50
50
50
50
50
50
50
50
50
50
50
50
50
50
50
50
50
50
50
50
50
50
50
50
50
50
50
50
50
50
50
50
50
50
50
50
50
50
50
50
50
50
50
50
50
50
50
50
50
50
50
50
50
50
50
50
50
50
50
50
50
50
50
50
50
50
50
50
50
50
50
50
50
50
50
50
50
50
50
50
50
50
50
50
50
50
50
50
50
50
50
50
50
50
50
50
50
50
50
50
50
50
50
50
50
50
50
50
50
50
50
50
50
50
50
50
50
50
50
50
50
50
50
50
50
50
50
50
50
50
50
50
50
50
50
50
50
50
50
50
50
50
50
50
50
50
50
50
50
50
50
50
50
50
50
50
50
50
50
50
50
50
50
50
50
50
50
50
50
50
50
50
50
50
50
50
50
50
50
50
50
50
50
50
50
50
50
50
50
50
450
450
450
450
450
450
450
450
450
450
450
450
450
450
450
450
50
50
50
50
50
50
50
50
50
50
50
50
50
50
50
50
50
50
50
50
450
450
450
450
450
450
450
450
50
50
50
50
50
50
50
50
50
50
50
50
50
50
50
50
50
50
50
50
50
50
50
50
50
50
50
50
50
50
50
50
50
50
50
50
50
50
50
50
50
50
50
50
50
50
50
50
50
50
450
450
450
450
450
450
450
450
450
450
450
450
450
450
450
450
50
50
50
50
50
50
50
50
50
50
50
50
50
50
50
50
50
50
50
50
50
50
50
50
50
50
50
450
450
450
450
450
450
450
450
50
50
50
50
50
50
50
50
50
50
50
50
50
50
50
50
50
50
50
50
50
50
50
50
50
50
50
50
50
50
50
50
50
50
50
50
50
50
50
50
50
50
50
50
50
50
50
50
50
50
50
50
50
50
50
50
50
50
50
50
50
50
50
50
50
50
50
50
50
50
50
50
50
50
50
50
50