# vtk DataFile Version 3.0
Gravity inversion using rectangular prisms
ASCII
DATASET UNSTRUCTURED_GRID

POINTS	5590	double
0	0	0
0	0	200
0	0	300
0	0	400
0	0	600
0	0	800
0	0	1000
0	100	200
0	100	300
0	100	400
0	200	0
0	200	200
0	200	300
0	200	400
0	200	600
0	200	800
0	200	1000
0	400	0
0	400	200
0	400	400
0	400	600
0	400	800
0	400	1000
0	600	0
0	600	200
0	600	300
0	600	400
0	600	600
0	600	800
0	600	1000
0	700	200
0	700	300
0	700	400
0	800	0
0	800	200
0	800	300
0	800	400
0	800	600
0	800	800
0	800	1000
0	1000	0
0	1000	200
0	1000	400
0	1000	600
0	1000	800
0	1000	1000
0	1200	0
0	1200	200
0	1200	400
0	1200	600
0	1200	800
0	1200	1000
0	1400	0
0	1400	200
0	1400	300
0	1400	400
0	1400	600
0	1400	800
0	1400	1000
0	1500	200
0	1500	300
0	1500	400
0	1600	0
0	1600	200
0	1600	300
0	1600	400
0	1600	600
0	1600	800
0	1600	1000
0	1800	0
0	1800	200
0	1800	300
0	1800	400
0	1800	600
0	1800	800
0	1800	1000
0	1900	200
0	1900	300
0	1900	400
0	2000	0
0	2000	200
0	2000	300
0	2000	400
0	2000	600
0	2000	800
0	2000	1000
100	0	200
100	0	300
100	0	400
100	100	200
100	100	300
100	100	400
100	200	200
100	200	300
100	200	400
100	600	200
100	600	300
100	600	400
100	700	200
100	700	300
100	700	400
100	800	200
100	800	300
100	800	400
100	1400	200
100	1400	300
100	1400	400
100	1500	200
100	1500	300
100	1500	400
100	1600	200
100	1600	300
100	1600	400
100	1800	200
100	1800	300
100	1800	400
100	1900	200
100	1900	300
100	1900	400
100	2000	200
100	2000	300
100	2000	400
200	0	0
200	0	200
200	0	300
200	0	400
200	0	600
200	0	800
200	0	1000
200	100	200
200	100	300
200	100	400
200	200	0
200	200	200
200	200	300
200	200	400
200	200	600
200	200	800
200	200	1000
200	400	0
200	400	200
200	400	400
200	400	600
200	400	800
200	400	1000
200	600	0
200	600	200
200	600	300
200	600	400
200	600	600
200	600	800
200	600	1000
200	700	200
200	700	300
200	700	400
200	800	0
200	800	200
200	800	300
200	800	400
200	800	600
200	800	800
200	800	1000
200	1000	0
200	1000	200
200	1000	400
200	1000	600
200	1000	800
200	1000	1000
200	1200	0
200	1200	200
200	1200	400
200	1200	600
200	1200	800
200	1200	1000
200	1400	0
200	1400	200
200	1400	300
200	1400	400
200	1400	600
200	1400	800
200	1400	1000
200	1500	200
200	1500	300
200	1500	400
200	1600	0
200	1600	200
200	1600	300
200	1600	400
200	1600	600
200	1600	800
200	1600	1000
200	1800	0
200	1800	200
200	1800	300
200	1800	400
200	1800	600
200	1800	800
200	1800	1000
200	1900	200
200	1900	300
200	1900	400
200	2000	0
200	2000	200
200	2000	300
200	2000	400
200	2000	600
200	2000	800
200	2000	1000
300	0	200
300	0	300
300	0	400
300	100	200
300	100	300
300	100	400
300	200	200
300	200	300
300	200	400
300	600	200
300	600	300
300	600	400
300	700	200
300	700	300
300	700	400
300	800	200
300	800	300
300	800	400
400	0	0
400	0	200
400	0	300
400	0	400
400	0	600
400	0	800
400	0	1000
400	100	200
400	100	300
400	100	400
400	200	0
400	200	200
400	200	300
400	200	400
400	200	600
400	200	800
400	200	1000
400	300	200
400	300	300
400	300	400
400	400	0
400	400	100
400	400	200
400	400	300
400	400	400
400	400	600
400	400	800
400	400	1000
400	500	0
400	500	100
400	500	200
400	500	300
400	500	400
400	600	0
400	600	100
400	600	200
400	600	300
400	600	400
400	600	600
400	600	800
400	600	1000
400	700	0
400	700	100
400	700	200
400	700	300
400	700	400
400	800	0
400	800	100
400	800	200
400	800	300
400	800	400
400	800	600
400	800	800
400	800	1000
400	900	0
400	900	100
400	900	200
400	900	300
400	900	400
400	1000	0
400	1000	100
400	1000	200
400	1000	300
400	1000	400
400	1000	600
400	1000	800
400	1000	1000
400	1200	0
400	1200	200
400	1200	400
400	1200	600
400	1200	800
400	1200	1000
400	1400	0
400	1400	200
400	1400	400
400	1400	600
400	1400	800
400	1400	1000
400	1600	0
400	1600	200
400	1600	400
400	1600	600
400	1600	800
400	1600	1000
400	1800	0
400	1800	200
400	1800	400
400	1800	600
400	1800	800
400	1800	1000
400	2000	0
400	2000	200
400	2000	400
400	2000	600
400	2000	800
400	2000	1000
500	0	200
500	0	300
500	0	400
500	100	200
500	100	300
500	100	400
500	200	200
500	200	300
500	200	400
500	300	200
500	300	300
500	300	400
500	400	0
500	400	100
500	400	200
500	400	300
500	400	400
500	500	0
500	500	100
500	500	200
500	500	300
500	500	400
500	600	0
500	600	100
500	600	150
500	600	200
500	600	300
500	600	400
500	650	100
500	650	150
500	650	200
500	700	0
500	700	100
500	700	150
500	700	200
500	700	300
500	700	400
500	750	100
500	750	150
500	750	200
500	800	0
500	800	100
500	800	150
500	800	200
500	800	300
500	800	400
500	900	0
500	900	100
500	900	200
500	900	300
500	900	400
500	1000	0
500	1000	100
500	1000	200
500	1000	300
500	1000	400
550	600	100
550	600	150
550	600	200
550	650	100
550	650	150
550	650	200
550	700	100
550	700	150
550	700	200
550	750	100
550	750	150
550	750	200
550	800	100
550	800	150
550	800	200
600	0	0
600	0	200
600	0	300
600	0	400
600	0	600
600	0	800
600	0	1000
600	100	200
600	100	300
600	100	400
600	200	0
600	200	100
600	200	200
600	200	300
600	200	400
600	200	600
600	200	800
600	200	1000
600	300	0
600	300	100
600	300	200
600	300	300
600	300	400
600	400	0
600	400	100
600	400	200
600	400	300
600	400	400
600	400	600
600	400	800
600	400	1000
600	500	0
600	500	100
600	500	150
600	500	200
600	500	300
600	500	400
600	550	100
600	550	150
600	550	200
600	600	0
600	600	100
600	600	150
600	600	200
600	600	300
600	600	400
600	600	600
600	600	800
600	600	1000
600	650	100
600	650	150
600	650	200
600	700	0
600	700	100
600	700	150
600	700	200
600	700	300
600	700	400
600	750	100
600	750	150
600	750	200
600	800	0
600	800	100
600	800	150
600	800	200
600	800	300
600	800	400
600	800	600
600	800	800
600	800	1000
600	850	100
600	850	150
600	850	200
600	900	0
600	900	100
600	900	150
600	900	200
600	900	300
600	900	400
600	1000	0
600	1000	100
600	1000	200
600	1000	300
600	1000	400
600	1000	600
600	1000	800
600	1000	1000
600	1100	200
600	1100	300
600	1100	400
600	1200	0
600	1200	100
600	1200	200
600	1200	300
600	1200	400
600	1200	500
600	1200	600
600	1200	800
600	1200	1000
600	1300	0
600	1300	100
600	1300	200
600	1300	300
600	1300	400
600	1300	500
600	1300	600
600	1400	0
600	1400	100
600	1400	200
600	1400	300
600	1400	400
600	1400	500
600	1400	600
600	1400	800
600	1400	1000
600	1500	0
600	1500	100
600	1500	200
600	1500	300
600	1500	400
600	1500	500
600	1500	600
600	1600	0
600	1600	100
600	1600	200
600	1600	300
600	1600	400
600	1600	500
600	1600	600
600	1600	800
600	1600	1000
600	1700	200
600	1700	300
600	1700	400
600	1800	0
600	1800	200
600	1800	300
600	1800	400
600	1800	600
600	1800	800
600	1800	1000
600	2000	0
600	2000	200
600	2000	400
600	2000	600
600	2000	800
600	2000	1000
650	500	100
650	500	150
650	500	200
650	550	100
650	550	150
650	550	200
650	600	100
650	600	150
650	600	200
650	650	100
650	650	150
650	650	200
650	700	100
650	700	150
650	700	200
650	750	100
650	750	150
650	750	200
650	800	100
650	800	150
650	800	200
650	850	100
650	850	150
650	850	200
650	900	100
650	900	150
650	900	200
700	0	200
700	0	300
700	0	400
700	100	200
700	100	300
700	100	400
700	200	0
700	200	100
700	200	200
700	200	300
700	200	400
700	300	0
700	300	100
700	300	200
700	300	300
700	300	400
700	400	0
700	400	100
700	400	200
700	400	300
700	400	400
700	500	0
700	500	100
700	500	150
700	500	200
700	500	300
700	500	400
700	550	100
700	550	150
700	550	200
700	600	0
700	600	100
700	600	150
700	600	200
700	600	300
700	600	400
700	650	100
700	650	150
700	650	200
700	700	0
700	700	100
700	700	150
700	700	200
700	700	300
700	700	400
700	750	100
700	750	150
700	750	200
700	800	0
700	800	100
700	800	150
700	800	200
700	800	300
700	800	400
700	850	100
700	850	150
700	850	200
700	900	0
700	900	100
700	900	150
700	900	200
700	900	300
700	900	400
700	1000	0
700	1000	100
700	1000	200
700	1000	300
700	1000	400
700	1100	200
700	1100	300
700	1100	400
700	1200	0
700	1200	100
700	1200	200
700	1200	250
700	1200	300
700	1200	350
700	1200	400
700	1200	500
700	1200	600
700	1250	200
700	1250	250
700	1250	300
700	1250	350
700	1250	400
700	1300	0
700	1300	100
700	1300	200
700	1300	250
700	1300	300
700	1300	350
700	1300	400
700	1300	500
700	1300	600
700	1350	200
700	1350	250
700	1350	300
700	1350	350
700	1350	400
700	1400	0
700	1400	100
700	1400	200
700	1400	250
700	1400	300
700	1400	350
700	1400	400
700	1400	500
700	1400	600
700	1450	200
700	1450	250
700	1450	300
700	1450	350
700	1450	400
700	1500	0
700	1500	100
700	1500	200
700	1500	250
700	1500	300
700	1500	350
700	1500	400
700	1500	500
700	1500	600
700	1550	200
700	1550	250
700	1550	300
700	1550	350
700	1550	400
700	1600	0
700	1600	100
700	1600	200
700	1600	250
700	1600	300
700	1600	350
700	1600	400
700	1600	500
700	1600	600
700	1700	200
700	1700	300
700	1700	400
700	1800	200
700	1800	300
700	1800	400
750	600	100
750	600	150
750	600	200
750	650	100
750	650	150
750	650	200
750	700	100
750	700	150
750	700	200
750	750	100
750	750	150
750	750	200
750	800	100
750	800	150
750	800	200
750	1200	200
750	1200	250
750	1200	300
750	1200	350
750	1200	400
750	1250	200
750	1250	250
750	1250	300
750	1250	350
750	1250	400
750	1300	200
750	1300	250
750	1300	300
750	1300	350
750	1300	400
750	1350	200
750	1350	250
750	1350	300
750	1350	350
750	1350	400
750	1400	200
750	1400	250
750	1400	300
750	1400	350
750	1400	400
750	1450	200
750	1450	250
750	1450	300
750	1450	350
750	1450	400
750	1500	200
750	1500	250
750	1500	300
750	1500	350
750	1500	400
750	1550	200
750	1550	250
750	1550	300
750	1550	350
750	1550	400
750	1600	200
750	1600	250
750	1600	300
750	1600	350
750	1600	400
800	0	0
800	0	100
800	0	200
800	0	300
800	0	400
800	0	500
800	0	600
800	0	800
800	0	1000
800	100	0
800	100	100
800	100	200
800	100	300
800	100	350
800	100	400
800	100	500
800	100	600
800	150	300
800	150	350
800	150	400
800	200	0
800	200	100
800	200	200
800	200	250
800	200	300
800	200	350
800	200	400
800	200	500
800	200	600
800	200	800
800	200	1000
800	250	200
800	250	250
800	250	300
800	300	0
800	300	100
800	300	200
800	300	250
800	300	300
800	300	400
800	300	500
800	300	600
800	400	0
800	400	100
800	400	200
800	400	300
800	400	400
800	400	500
800	400	600
800	400	800
800	400	1000
800	500	0
800	500	100
800	500	200
800	500	300
800	500	400
[...]
CELL_DATA	3937
SCALARS model double 1
LOOKUP_TABLE table0
2.65164
-33.4789
-31.7151
-30.5863
-30.9541
-27.7115
-30.3543
-27.915
-30.2287
-6.60129
8.50304
17.8287
2.21085
-3.49678
-1.75638
8.3987
16.4465
2.74026
-18.424
-1.85174
8.50788
15.7372
3.53938
-20.4046
-20.2469
-20.8862
-20.3295
-19.556
-20.0031
-19.6049
-20.0044
-2.40741
8.19014
15.1222
3.04836
-14.4035
-2.32433
7.5633
14.4405
2.62271
-17.0955
-3.10109
6.71892
13.7771
2.09309
-7.77923
-3.16495
6.04875
13.3493
2.56629
-21.5402
-22.3399
-23.3039
-22.6466
-21.0673
-22.1468
-23.2631
-22.572
-4.52566
5.74164
13.3621
1.30168
0.25926
-2.69572
6.04053
13.9766
1.52725
-20.206
-21.5518
-22.5392
-22.0377
-20.0694
-21.4827
-21.0254
-21.7411
-6.7928
6.38477
15.371
2.36209
-1.87786
-3.02515
-2.43616
-3.20646
-3.65023
-3.46021
-3.6706
-3.53366
-2.07289
9.23367
17.533
3.00168
-5.58093
0.412328
9.03188
16.0012
4.98752
-3.50932
3.4747
9.75742
15.2535
5.94535
9.15484
8.90579
9.31141
8.97193
8.89981
8.95546
9.11181
9.04209
6.20647
9.85953
14.5193
4.50594
6.21872
4.18449
8.48689
13.4576
2.69141
-3.34354
-0.0981731
6.33082
12.2767
2.51715
4.69937
-1.90476
4.70459
11.4457
2.53167
-6.59795
-3.83954
4.0141
11.3052
1.52959
2.58087
-2.37506
4.50732
12.0438
1.0535
1.06136
-3.41638
5.65957
13.7711
3.59411
-34.5421
-33.9189
-34.1852
-33.6269
-35.0441
-34.4685
-33.4384
-33.841
-3.58351
11.2951
18.5323
5.42696
-4.13526
-3.85461
-3.6372
-3.69044
-3.69498
-3.80027
-3.17857
-3.58584
4.63327
11.4877
16.6793
10.6692
16.6341
21.076
17.9676
19.7465
19.427
34.521
20.6784
16.054
16.7934
16.8973
17.0827
17.848
17.2768
18.2716
17.5271
13.4201
12.9168
15.6729
20.8873
35.8267
19.2231
36.1295
45.4659
43.4034
43.1206
43.2811
43.139
43.8977
43.3933
43.8144
43.4231
48.5155
43.8258
43.6542
44.025
43.7121
44.378
43.9408
44.5646
43.9921
35.1169
35.2182
35.298
35.2956
35.676
35.4381
35.8353
35.5104
17.5619
12.9954
14.6124
20.6406
21.8086
10.9098
20.5764
38.6055
24.3006
24.6041
23.2532
19.9044
19.7151
19.6978
19.6083
20.4293
19.9061
20.2074
19.7645
12.0376
10.4488
13.0666
7.21255
-6.30716
2.0189
6.6178
11.3679
3.59455
-14.1133
-3.93442
3.75357
10.183
3.90759
-15.5253
-6.23785
2.63479
9.94769
3.06094
-8.22342
-5.00483
3.31254
10.8558
2.0983
-16.6538
-4.2663
5.35496
12.9665
2.17446
-21.0419
-20.3068
-19.3462
-19.6955
-22.7097
-20.4391
-20.8509
-19.9024
6.2841
16.1963
20.3919
6.06353
6.55488
8.42626
7.17721
5.02824
5.38004
9.46521
6.24679
18.5424
18.2655
19.5491
18.78
17.6071
18.1275
18.8092
18.6597
13.6525
14.6739
17.4694
20.3071
51.2109
60.7817
56.8041
56.5001
57.2864
56.7305
56.8953
56.6029
57.4048
56.8528
29.4234
52.214
69.079
61.6983
50.9543
49.9797
51.2353
50.261
50.6824
49.9798
51.3626
50.3181
23.2778
14.7703
15.4638
72.6075
125.81
126.104
125.881
126.264
126.304
126.416
126.529
126.623
80.8393
125.842
125.995
125.967
125.96
126.422
126.334
126.34
126.234
96.7162
129.16
128.781
129.426
129.029
129.139
128.764
129.449
129.019
94.8685
127.89
127.476
127.782
127.407
127.965
127.515
127.78
127.407
54.6602
52.6278
54.4304
52.4639
55.7894
53.183
55.0301
52.8284
26.0553
13.745
13.6997
59.581
59.1032
58.5262
58.6521
58.3429
59.1499
58.6216
58.6722
58.4225
33.8015
55.6527
64.9785
59.6952
38.5362
54.0476
43.3818
42.3666
42.881
42.0482
43.1604
42.2623
42.5115
41.9405
17.4107
10.2945
11.8058
10.3072
6.35808
5.76057
4.95309
5.27992
6.05881
5.6968
4.95735
5.27917
3.98138
5.89642
10.0667
0.855186
2.07677
6.59478
5.12383
6.59155
2.17726
2.90183
3.07363
8.65322
10.2483
10.2505
10.2446
9.99298
10.0701
10.0276
10.0841
10.1804
10.1906
10.2017
10.2007
10.978
10.9945
10.9819
10.9953
11.062
11.0568
11.0649
11.0574
10.0207
10.0438
10.022
10.0427
10.15
10.1317
10.1506
10.1293
10.5782
10.5862
10.5793
10.5847
10.6589
10.6473
10.6582
10.6447
-1.87909
-1.81425
-1.87972
-1.84201
-1.8037
-1.76779
-1.8709
-1.80758
2.79291
9.01213
2.69964
1.45896
0.486993
-0.75257
5.48088
1.15428
1.26807
-0.782849
6.52018
6.67904
4.80109
6.37565
6.15124
6.16175
6.12235
6.14485
6.31717
6.27326
6.28854
6.25527
6.77963
6.78322
6.77126
6.77863
6.86225
6.84583
6.8522
6.83974
4.83846
4.8819
4.788
4.85888
5.00161
4.98936
4.93799
4.95723
6.35112
6.36346
6.3414
6.3578
6.42857
6.422
6.41319
6.4129
-5.30311
-5.28392
-5.28517
-5.27459
-5.28131
-5.25259
-5.29305
-5.24874
1.59716
8.95743
3.06928
-14.5174
-14.9543
-13.2271
-14.5798
-15.7444
-15.2989
-15.4645
-15.1026
-6.89991
2.43707
10.1052
2.00977
-2.26487
-3.10359
5.28281
12.5687
2.22783
-3.12316
1.88494
-0.931895
1.29718
3.22479
1.63832
1.14256
-26.6241
-25.5009
-27.4909
-26.656
-26.6195
-26.6271
-26.6005
-26.6286
-26.6009
-26.61
-26.5886
-12.9658
-18.7847
-22.4219
-23.263
-23.249
-23.2328
-23.2283
-23.2484
-23.2406
-23.2266
-23.2265
24.7042
24.9045
24.6654
24.8511
25.4024
25.2309
25.1156
25.0782
22.0056
21.9184
1.63637
0.25983
5.50981
2.43831
1.78492
2.04963
3.53509
2.37252
38.0359
38.1553
38.1404
38.236
38.0711
38.1882
38.1623
38.2591
39.0046
39.4594
39.7018
38.752
38.8513
38.8216
38.9059
38.8106
38.8776
38.8582
38.9197
39.7518
39.7669
39.7879
39.7941
39.7634
39.7718
39.7911
39.793
39.6158
39.8222
18.8751
18.9062
18.8781
18.8892
18.9446
18.9356
18.8459
18.8648
15.1803
17.0108
27.998
35.0463
59.8809
40.9072
13.6833
32.4246
35.5645
37.5588
35.85
33.7399
37.6215
34.2573
37.4474
37.4744
37.4851
37.4907
37.3017
37.378
37.33
37.3865
33.7579
33.7604
33.7627
33.7608
33.688
33.7082
33.6868
33.7042
37.7587
37.7335
37.816
37.7669
37.5965
37.622
37.6511
37.6514
33.7418
33.7333
33.7631
33.7468
33.6611
33.6728
33.6787
33.6835
17.4339
17.4112
17.4978
17.428
17.2904
17.3264
17.2942
17.3099
10.5803
13.1375
76.286
91.1817
90.7428
91.3534
90.9088
90.9195
90.5937
91.0528
90.7438
90.1641
91.6233
39.2303
86.3843
86.3326
86.2644
86.3986
85.5859
85.8791
84.996
85.8372
40.676
85.4216
85.4703
85.5423
85.4706
84.3256
85.0016
84.5517
85.0163
51.4898
48.5731
50.4323
48.0838
50.3343
50.2238
50.3411
50.2362
50.091
50.0543
50.069
50.0554
47.8055
47.7898
47.8175
47.7993
47.6822
47.6971
47.6889
47.7038
49.7093
49.6055
49.7038
49.5999
49.4214
49.4203
49.4183
49.4159
47.4054
47.3876
47.3978
47.3829
47.2743
47.2911
47.2677
47.2872
14.9123
14.7394
14.9119
14.7309
14.5726
14.5494
14.5575
14.5338
7.237
10.3706
55.1748
59.5329
30.4624
52.9971
32.9942
65.2007
65.1241
64.9453
65.023
64.9033
64.983
64.781
64.9299
19.7571
57.3677
57.5306
57.2604
57.4524
57.2557
57.4674
57.167
57.3982
32.944
30.9427
30.9522
29.9473
33.4128
30.2212
30.9972
29.5173
29.5053
29.5039
29.4964
29.4503
29.4543
29.4418
29.4489
7.97308
7.85986
7.90887
7.83203
7.76527
7.73683
7.75022
7.73623
4.31847
8.59179
17.3262
11.6642
7.61039
9.6437
11.5702
11.1917
10.6988
9.84545
7.3676
7.14623
5.60426
5.61618
5.74809
5.71196
5.61
5.61622
5.76887
5.72134
5.90606
5.91305
5.9771
5.96734
5.90415
5.91073
5.9809
5.9687
7.92933
7.13679
6.09263
6.10044
6.26587
6.21525
6.04824
6.07244
6.2355
6.19632
6.20738
6.2136
6.29096
6.27628
6.1857
6.19678
6.2753
6.26362
1.51381
1.50443
1.48622
1.50658
1.38464
1.42457
1.44023
1.46726
2.26729
7.73887
10.07
19.0792
19.275
19.0588
19.3056
19.2311
19.3656
19.242
19.4028
15.3862
21.8777
22.0787
22.0057
22.1185
22.0786
22.1875
22.1758
22.2223
20.3707
22.1521
22.2148
22.2512
22.2803
22.1975
22.265
22.3337
22.3452
39.2763
26.9455
26.7896
27.0115
26.8268
27.0474
26.8594
27.1189
26.8986
101.454
102.105
101.81
102.371
101.825
102.37
102.197
102.645
103.518
103.557
103.624
103.637
103.626
103.638
103.734
103.72
100.981
101.282
101.009
101.293
101.226
101.45
101.247
101.458
103.281
103.307
103.285
103.308
103.375
103.376
103.378
103.376
103.342
103.866
103.759
104.167
103.719
104.118
104.17
104.437
104.848
104.86
104.963
104.947
104.956
104.94
105.076
105.03
106.695
106.833
106.723
106.847
106.946
107.001
106.976
107.016
106.205
106.177
106.209
106.179
106.298
106.246
106.303
106.248
55.2486
55.2317
55.2689
55.2508
55.2752
55.2548
55.2966
55.2748
55.3769
55.3772
55.3902
55.3897
55.3933
55.3921
55.4073
55.405
54.6566
55.0521
55.0506
55.0518
55.0503
55.0653
55.0628
55.0651
55.0626
55.6966
55.6774
55.7147
55.6942
55.7176
55.6936
55.7368
55.7112
55.6026
55.6005
55.6141
55.6114
55.6153
55.6108
55.6274
55.6222
56.5788
55.2552
2.70792
2.70028
2.69328
2.6901
2.7102
2.69691
2.70553
2.69165
7.67121
13.6121
27.1481
27.3265
27.0882
27.2981
27.2891
27.4419
27.2318
27.4091
3.16572
21.0599
21.3707
20.8732
21.2804
21.2484
21.4723
21.0906
21.3862
35.3097
34.3284
18.2037
26.1779
26.2641
26.0331
26.1739
26.2429
26.3203
26.0914
26.2264
102.66
102.944
102.617
102.92
102.908
103.115
102.864
103.089
105.325
105.337
105.318
105.333
105.421
105.408
105.413
105.403
101.541
102.054
101.177
101.83
101.937
102.342
101.579
102.114
104.626
104.652
104.519
104.576
104.738
104.735
104.627
104.656
108.191
108.289
108.135
108.256
108.46
108.469
108.399
108.434
108.151
108.124
108.14
108.117
108.251
108.198
108.238
108.189
103.081
103.319
102.824
103.15
103.335
103.491
103.076
103.32
105.646
105.637
105.531
105.554
105.767
105.726
105.65
105.641
58.0544
58.0394
58.0531
58.0388
58.0779
58.0606
58.0759
58.0595
58.4146
58.4143
58.4144
58.4143
58.4293
58.428
58.4288
58.4278
57.7205
57.7049
57.7037
57.6923
57.7485
57.7294
57.73
57.7156
58.1829
58.1836
58.1731
58.1756
58.201
58.2
58.1904
58.1915
59.7195
58.5804
58.0278
58.0071
58.0074
57.9918
58.0586
58.0309
58.0369
58.0147
58.3688
58.3675
58.3575
58.3585
58.3876
58.3828
58.3757
58.3734
2.76669
2.76371
2.75851
2.75909
2.79261
2.77606
2.7738
2.76958
8.25254
0.197995
-2.77333
1.49445
-2.45723
2.95224
-1.19747
0.848788
-1.43275
9.79348
9.84602
9.60963
9.72936
9.85878
9.88318
9.67296
9.76223
11.6288
11.6355
11.5469
11.576
11.6469
11.6492
11.5611
11.5868
9.47457
10.9541
10.3415
10.346
10.1521
10.2208
10.3815
10.371
10.1883
10.2419
11.6896
11.6874
11.5998
11.6219
11.7042
11.6966
11.6113
11.6288
9.40952
10.667
-5.54677
-5.44686
-5.50629
-5.4397
-5.5306
-5.43437
-5.5597
-5.45469
2.04292
9.71513
2.39549
-18.301
-4.76527
5.11604
12.4103
-0.472226
26.4223
25.4688
24.1014
24.6828
26.7828
25.7184
21.6034
24.3889
0.326757
18.875
19.7154
20.3969
20.0798
17.0946
19.4843
21.9983
20.3572
-0.0600978
21.7481
0.719401
22.034
24.4661
26.96
25.3823
23.8748
24.7667
25.935
25.2735
-46.7186
-47.0311
-47.0259
-47.1677
-46.6417
-47.0013
-47.0753
-47.1736
-55.4103
-55.4685
-55.4762
-55.5057
-55.3933
-55.4656
-55.4712
-55.5077
-59.7508
-59.6598
-59.353
-59.6105
-59.8941
-59.6588
-59.0674
-59.5231
-62.2434
-62.2393
-62.2485
-62.2556
-62.2352
-62.2343
-62.236
-62.2532
-44.5351
-53.8033
-60.4242
-60.399
-59.8191
-60.2914
-60.3224
-60.4037
-59.8645
-60.3074
-62.5154
-62.5179
-62.5107
-62.536
-62.5313
-62.5317
-62.5209
-62.5449
19
17.8174
17.5024
17.5269
17.4834
17.5126
17.5088
17.5305
17.4877
17.5146
17.2264
19.1688
17.9092
17.6144
17.6359
17.5929
17.6195
17.6076
17.6319
17.5876
17.6161
17.2461
22.9054
21.5502
1.50583
8.32587
3.61634
0.721037
1.93413
9.39375
2.84772
0.401966
-1.83498
-4.3611
-1.65166
-4.58654
-0.653851
-4.59406
-6.8304
-6.18647
7.20848
7.16761
6.98654
7.03448
7.17864
7.13974
6.90384
6.97665
10.1806
14.6518
6.80122
4.16234
10.5755
4.69554
-0.360688
-0.830202
-13.6119
1.57741
1.55755
1.48659
1.53628
1.1251
1.35512
0.900098
1.27931
-44.2124
-44.3589
-44.2863
-44.4276
-44.4182
-44.4936
-44.4884
-44.5708
-48.4093
-48.4204
-48.4583
-48.4641
-48.4938
-48.4873
-48.5516
-48.5379
-45.8056
-45.9719
-45.7843
-45.972
-46.0001
-46.1218
-45.9855
-46.1284
-48.9504
-48.9549
-48.9453
-48.9537
-49.0313
-49.0175
-49.0309
-49.0196
-52.8957
-52.9423
-52.9394
-53.0036
-52.921
-52.9764
-52.9812
-53.0455
-51.4938
-55.8348
-52.7721
-14.4164
-14.4344
-14.7142
-14.6269
-14.7313
-14.6195
-15.18
-14.8842
-0.381488
8.86511
10.2722
2.01153
1.19627
1.09854
0.992875
1.55409
0.855401
0.842542
0.677125
11.3881
8.84676
8.94641
9.19916
9.01113
8.71174
8.64623
8.67238
8.6518
-22.7166
-16.479
-16.6659
-16.8447
-16.8278
-17.6976
-17.1887
-17.9281
-17.3175
-21.6784
-9.76533
-9.71465
-10.0095
-9.72596
-10.9225
-10.2094
-11.0044
-10.2005
-44.6495
-44.833
-44.7088
-44.8527
-44.8817
-45.0081
-44.943
-45.0318
-46.643
-46.6542
-46.6506
-46.6578
-46.7669
-46.7498
-46.7774
-46.7553
-43.7093
-43.8443
-43.68
-43.8286
-43.9564
-44.026
-43.9352
-44.0099
-46.8224
-46.8276
-46.8166
-46.825
-46.95
-46.9253
-46.9428
-46.9213
-52.9781
-50.6951
-51.2403
-51.2782
-51.2349
-51.2749
-51.4117
-51.3927
-51.4012
-51.3862
-50.9124
-22.6756
-22.5298
-22.698
-22.5474
-23.0498
-22.7354
-23.0632
-22.7467
-6.3517
5.24604
14.1873
0.435559
11.2375
1.84076
-9.42696
-4.75681
4.65159
-0.540132
-33.6259
-33.6911
-33.5884
-33.6709
-33.7631
-33.8041
-33.709
-33.7749
-41.5047
-36.398
-36.4951
-36.388
-36.486
-36.5
-36.5858
-36.4844
-36.5697
-41.3808
-41.3944
-41.3691
-41.3854
-41.4466
-41.4461
-41.4295
-41.4332
-55.235
-48.6191
-46.98
-45.8489
-22.3804
-22.2583
-22.2747
-22.2041
-22.6731
-22.4233
-22.4669
-22.3182
-7.09476
4.10595
12.2233
16.1438
13.2918
14.4972
11.9806
10.6277
15.5541
14.8107
-15.0567
-17.2987
-15.3823
-15.4856
-14.5479
-14.9231
-15.4937
-15.5734
-14.6044
-14.9737
-16.8415
-16.8232
-16.4307
-16.5145
-16.9081
-16.8752
-16.4722
-16.5493
-15.5558
-18.6297
-13.5154
-13.5753
-12.5721
-12.9372
-13.6135
-13.6462
-12.6474
-12.9867
-16.4991
-16.4633
-16.0363
-16.1186
-16.5577
-16.5091
-16.0776
-16.1513
-8.61813
-8.86249
-8.35189
-8.34156
-8.27425
-8.28005
-8.35549
-8.34521
-8.2751
-8.28157
-8.65827
-8.65572
-8.60834
-8.61443
-8.66127
-8.65872
-8.60969
-8.61616
-9.4511
-9.37387
-8.47833
-8.46967
-8.3952
-8.40372
-8.47691
-8.46895
-8.39249
-8.40173
-8.81418
-8.81228
-8.76095
-8.76838
-8.81399
-8.81251
-8.75965
-8.7677
-2.97539
-2.94096
-2.93787
-2.92252
-2.99071
-2.95241
-2.9221
-2.9162
4.87432
28.1861
35.9084
36.7135
36.6123
37.1278
36.3648
36.9246
37.0247
37.3481
43.8813
38.6434
38.5512
38.9451
38.7138
38.9427
38.7695
39.199
38.9248
31.1234
39.9697
40.5437
40.6826
41.0217
39.9277
40.5901
40.6752
41.0737
47.7041
46.0163
45.9587
46.1502
46.0317
46.0545
45.9851
46.2439
46.0779
189.1
190.193
189.979
190.77
189.456
190.429
190.353
191.02
191.762
191.825
192.163
192.126
191.917
191.945
192.329
192.255
191.907
192.513
192.014
192.576
192.26
192.768
192.368
192.833
193.178
193.114
193.194
193.124
193.281
193.196
193.298
193.207
191.327
192.281
192.232
192.881
191.335
192.292
192.244
192.896
192.709
192.731
193.128
193.049
192.715
192.734
193.137
193.056
193.942
194.392
194.051
194.457
193.956
194.422
194.066
194.487
194.56
194.498
194.568
194.504
194.56
194.498
194.568
194.504
101.949
101.906
102.026
101.966
101.984
101.934
102.062
101.996
101.612
101.598
101.66
101.638
101.634
101.616
101.683
101.657
102.804
102.742
102.808
102.745
102.831
102.765
102.835
102.768
101.495
101.472
101.497
101.474
101.512
101.487
101.514
101.488
102.328
102.276
102.407
102.339
102.334
102.281
102.414
102.344
101.767
101.748
101.816
101.789
101.77
101.75
101.82
101.792
103.44
103.387
103.443
103.389
103.441
103.388
103.444
103.39
101.768
101.742
101.77
101.743
101.77
101.743
101.772
101.745
6.73113
6.70685
6.7334
6.70884
6.7328
6.70812
6.7355
6.71045
6.5058
6.53261
6.50801
6.53328
6.50863
6.53497
6.50981
6.53577
6.51054
6.35605
6.76973
6.74464
6.77283
6.74727
6.77077
6.7453
6.77414
6.74816
6.52881
6.62986
6.60414
6.63076
6.60496
6.63133
6.60517
6.63225
6.60602
6.41752
6.42155
40.519
41.29
41.2791
40.8927
41.0884
41.5282
41.4458
41.1685
41.2508
13.262
35.6153
36.6185
34.9953
36.268
35.8712
36.7609
35.1798
36.3811
51.4873
44.4125
44.0753
44.021
43.8564
44.5532
44.1493
44.1064
43.912
24.7328
38.4772
39.062
37.7611
38.6557
38.5138
39.0943
37.8147
38.6792
200.977
201.6
200.912
201.566
201.351
201.871
201.277
201.832
202.967
202.906
202.957
202.901
203.08
202.994
203.069
202.988
196.985
197.802
196.207
197.285
197.34
198.061
196.547
197.535
200.58
200.543
200.218
200.278
200.755
200.681
200.387
200.412
202.87
203.376
202.79
203.331
202.904
203.402
202.816
203.353
204.153
204.073
204.144
204.067
204.161
204.079
204.15
204.073
198.573
199.279
197.766
198.744
198.589
199.294
197.775
198.754
201.348
201.268
200.974
200.995
201.359
201.278
200.983
201.003
109.973
109.912
109.971
109.91
110.002
109.936
109.999
109.935
108.871
108.848
108.871
108.849
108.888
108.864
108.888
108.864
108.278
108.223
108.213
108.173
108.318
108.254
108.251
108.203
108.424
108.404
108.385
108.372
108.449
108.425
108.409
108.392
110.51
110.442
110.506
110.44
110.515
110.446
110.511
110.443
109.158
109.133
109.158
109.133
109.161
109.135
109.16
109.135
108.673
108.607
108.605
108.555
108.679
108.612
108.61
108.559
108.647
108.621
108.606
108.588
108.65
108.624
108.609
108.591
11.3549
11.3303
11.3549
11.3305
11.3583
11.3331
11.3582
11.3333
11.2352
11.0946
11.0707
11.0927
11.0694
11.0977
11.0733
11.0956
11.0718
11.0432
11.469
11.4432
11.4688
11.4433
11.4707
11.4445
11.4704
11.4445
11.3123
11.1891
11.1643
11.1868
11.1626
11.1905
11.1653
11.1879
11.1635
11.1099
7.94763
3.84647
-0.756249
-0.0334468
-2.74511
6.34924
-0.646742
1.00931
-4.12766
19.1546
19.0707
18.3904
18.5562
19.1973
19.1065
18.4164
18.582
19.7793
19.7215
19.4073
19.4477
19.8049
19.7421
19.4265
19.4641
16.0724
17.8526
19.6807
19.5919
18.8822
19.0579
19.6872
19.6011
18.8848
19.0648
20.0583
19.9937
19.6749
19.7122
20.0671
20.0017
19.6819
19.7187
16.0521
18.0015
12.5497
12.5448
12.4957
12.5029
12.5613
12.5545
12.5063
12.5119
12.9852
12.9838
12.9516
12.9563
12.9924
12.99
12.9582
12.9621
11.7069
12.3699
12.7534
12.7455
12.6975
12.7023
12.7568
12.7481
12.7004
12.7045
13.1064
13.1034
13.0718
13.0752
13.1083
13.1049
13.0734
13.0764
11.8312
12.4477
3.25774
3.28059
3.26709
3.28636
3.27158
3.28824
3.27515
3.29062
9.70876
2.01929
-16.3377
-16.2338
-15.903
-16.0522
-16.3157
-16.1908
-15.5253
-15.95
-4.44754
5.24463
12.4916
-0.854614
33.106
32.7666
32.5304
32.4337
30.7227
32.054
31.2145
32.0963
1.5718
20.5876
20.7112
21.3682
20.9336
20.152
20.5657
20.7625
20.7574
-0.962997
31.0663
33.5141
32.2949
33.8642
33.8203
34.1018
34.4839
34.3911
1.37437
26.1019
26.5349
26.5716
26.712
26.9209
26.7495
27.1863
26.8774
-42.9038
-43.0945
-43.0618
-43.176
-43.1973
-43.2294
-43.2245
-43.2616
-49.8641
-53.3933
-53.5064
-53.3262
-53.5043
-53.4618
-53.5489
-53.3884
-53.5355
-55.9171
-49.5164
-49.5216
-49.4738
-49.5192
-49.4503
-49.5218
-49.3983
-49.5088
-54.8231
-54.7976
-54.8309
-54.8083
-54.8318
-54.8075
-54.8326
-54.8141
-55.0494
-55.1489
-54.8495
-55.0767
-54.9116
-55.1189
-54.7504
-55.0565
-58.4753
-58.4391
-58.4684
-58.4435
-58.47
-58.4396
-58.4612
-58.4419
14.9186
14.4961
14.4965
14.2226
14.1914
14.1387
14.074
14.1068
14.0604
14.0939
14.0635
14.0987
14.0516
14.087
13.9664
17.5305
19.1927
1.92802
13.7416
3.40578
1.21323
2.07787
10.6049
2.2566
3.07884
-34.3803
-36.8269
-37.4544
-37.9015
-35.5145
-37.3835
-38.0048
-38.397
-10.0409
-10.1624
-10.5028
-10.4424
-10.2732
-10.2869
-10.6865
-10.5445
3.17408
11.6436
-7.42013
-46.2846
-46.5719
-46.396
-46.7085
-46.237
-46.6379
-46.4589
-46.8113
-32.7046
-50.8273
-50.9428
-51.2196
-51.1322
-51.0099
-51.0831
-51.4008
-51.2881
-18.3293
-41.0059
-43.4709
-49.6478
-86.4244
-83.1467
-88.8868
-84.8336
-85.5284
-83.6201
-88.5996
-85.4475
-37.482
-37.2551
-38.0156
-37.5554
-37.7796
-37.4175
-38.3163
-37.7106
-9.88338
5.18458
-51.0833
-100.159
-100.513
-100.885
-100.884
-100.632
-100.942
-101.356
-101.308
-53.4557
-101.729
-101.639
-101.315
-101.436
-102.234
-102.045
-101.758
-101.814
-73.6928
-108.083
-58.0654
-104.528
-104.523
-104.226
-104.35
-104.484
-104.521
-104.17
-104.344
-119.635
-115.41
-115.35
-115.447
-115.378
-115.482
-115.41
-115.517
-115.438
-119.012
-118.998
-118.974
-118.976
-119.128
-119.089
-119.085
-119.065
-115.742
-115.677
-115.712
-115.657
-115.81
-115.735
-115.777
-115.713
-120.511
-116.332
-116.273
-116.356
-116.292
-116.326
-116.27
-116.348
-116.288
-120.866
-116.547
-116.482
-116.519
-116.463
-116.537
-116.477
-116.507
-116.457
-43.4298
-42.1055
-43.6027
-42.2157
-43.9542
-42.4221
-44.0183
-42.4655
-16.9177
1.45301
-29.9905
-49.7696
-49.5647
-49.3509
-49.3221
-49.8412
-49.6713
-49.4716
-49.4294
-3.97009
-34.5639
-45.9171
-37.1518
-36.6016
-36.7205
-36.3303
-37.1186
-36.5878
-36.7314
-36.3365
-7.05293
-24.6142
-86.7239
-74.8326
-72.7999
-70.2488
-86.906
-76.2128
-77.0851
-71.6966
-48.7512
-48.3477
-48.3124
-48.1276
-48.8052
-48.3692
-48.2322
-48.0825
-14.3163
-14.2232
-14.2581
-14.1917
-14.3174
-14.2236
-14.2501
-14.1873
1.11177